                         Program Version 5.0.4 -  RELEASE  -
|  1> ! wB97X-D3BJ TightOpt Freq def2-TZVP def2/J RIJCOSX TightSCF defgrid3 CHELPG
|  2> %maxcore 3400
|  3>
|  4> %pal nprocs 8
|  5> end
|  6>
|  7> %chelpg
|  8> grid 0.1
|  9> rmax 3.0
| 10> end
| 11>
| 12> *xyz 1 1
| 13> O         3.2450016774     2.6926489094     0.0684264583
| 14> N        -1.3327840195    -0.1926326329     0.0392101551
| 15> N         2.8240798320     0.4927713485    -0.0517684039
| 16> C         1.3726414247     0.7244292768     0.0134475286
| 17> C         0.6760397052     0.2148380916    -1.2472555056
| 18> C         0.7569337015     0.0485529386     1.2373366337
| 19> C        -0.8236571925     0.4963634566    -1.1241145921
| 20> C        -0.7469238786     0.3358911960     1.2495115871
| 21> C        -2.7706929381    -0.3650726860     0.0735659330
| 22> C        -3.6086528425     0.9235234337     0.1903659029
| 23> C         3.2785061212    -0.8679505381    -0.1522180074
| 24> C         3.6851166114     1.4638152480    -0.0254075305
| 25> C        -5.0687518600     0.5733879643     0.1960962587
| 26> C         5.1538582636     1.1867345684    -0.1018650018
| 27> C         3.5310852355    -1.5940487909     1.0035617396
| 28> C         3.4529086378    -1.4440093995    -1.4029997802
| 29> C         6.0235028897     2.4400637574    -0.0506478732
| 30> C        -5.7246119546     0.2983668211     1.3888974625
| 31> C        -5.7749409655     0.4745982061    -0.9956625729
| 32> C         3.9455852182    -2.9113693906     0.9018963825
| 33> C         3.8681279456    -2.7620115964    -1.4924145900
| 34> C         4.1113165628    -3.4957245185    -0.3429782287
| 35> C        -7.0605266646    -0.0610702967     1.3917631546
| 36> C        -7.1108593488     0.1153687105    -0.9954909035
| 37> C        -7.7568747138    -0.1537281667     0.1989207762
| 38> H         1.2280631993     1.8055683547     0.0906629103
| 39> H         0.8186388083    -0.8616562434    -1.3404963511
| 40> H         1.0737411613     0.7115155964    -2.1336746933
| 41> H         1.2120955259     0.4257446372     2.1544798446
| 42> H         0.9018288832    -1.0300139989     1.1780902822
| 43> H        -0.9822370868     1.5884519721    -1.0754729775
| 44> H        -1.3350174576     0.1146415517    -2.0088679071
| 45> H        -1.2013014683    -0.1645140635     2.1057461006
| 46> H        -0.9050442264     1.4236119733     1.3589317100
| 47> H        -3.0579083807    -0.8934779711    -0.8392786799
| 48> H        -3.0017753912    -1.0169062014     0.9201220672
| 49> H        -3.3881016273     1.5780754831    -0.6551141258
| 50> H        -3.3480633743     1.4445100187     1.1136804724
| 51> H         5.3513097951     0.6337153166    -1.0247721355
| 52> H         5.4207336652     0.5134124674     0.7177546165
| 53> H         3.4010732391    -1.1355153992     1.9716500359
| 54> H         3.2619786222    -0.8697742133    -2.2964271699
| 55> H         5.8989320118     2.9800124518     0.8871635539
| 56> H         5.8278150051     3.1025382963    -0.8929641905
| 57> H         7.0676852846     2.1466216229    -0.1128470310
| 58> H        -5.1862935388     0.3733640719     2.3235834797
| 59> H        -5.2759320416     0.6877934364    -1.9308900220
| 60> H         4.1355561983    -3.4795794152     1.7985056079
| 61> H         3.9979411160    -3.2138191586    -2.4629116947
| 62> H         4.4302868681    -4.5229911878    -0.4173508106
| 63> H        -7.5595914858    -0.2674245983     2.3268953182
| 64> H        -7.6491648813     0.0470562784    -1.9291171325
| 65> H        -8.7997372564    -0.4321257517     0.2002791357
| 66> H         3.9693914798     3.3432613410     0.0821294848
| 67> *
| 68>
| 69>
| 70>                          ****END OF INPUT****
 Total Charge           Charge          ....    1
 Multiplicity           Mult            ....    1
 Number of Electrons    NEL             ....  182
Dispersion correction           -0.121116345
FINAL SINGLE POINT ENERGY     -1041.204655265018
Dispersion correction            ... done
Dispersion correction           -0.120255702
FINAL SINGLE POINT ENERGY     -1041.206636074323
Dispersion correction            ... done
Dispersion correction           -0.120222839
FINAL SINGLE POINT ENERGY     -1041.206971849396
Dispersion correction            ... done
FINAL SINGLE POINT ENERGY     -1041.207041421429
FINAL SINGLE POINT ENERGY     -1041.207051819270
Dispersion correction           -0.120291355
FINAL SINGLE POINT ENERGY     -1041.207054133331
Dispersion correction            ... done
Dispersion correction           -0.120288662
FINAL SINGLE POINT ENERGY     -1041.207054367411
Dispersion correction            ... done
                    ***********************HURRAY********************

CARTESIAN COORDINATES (ANGSTROEM)
---------------------------------
  O      3.159227    2.646742    0.064462
  N     -1.362237   -0.309427    0.013243
  N      2.814965    0.444835   -0.059726
  C      1.329762    0.641541   -0.003864
  C      0.660359    0.134753   -1.275703
  C      0.733445   -0.027086    1.228867
  C     -0.845939    0.365883   -1.161236
  C     -0.775725    0.212168    1.232177
  C     -2.816762   -0.418829    0.049745
  C     -3.599613    0.900138    0.162670
  C      3.330485   -0.908013   -0.159467
  C      3.653451    1.434518   -0.023886
  C     -5.082554    0.629255    0.195425
  C      5.143288    1.235339   -0.080256
  C      3.606450   -1.615388    1.001125
  C      3.538881   -1.462618   -1.413427
  C      5.953587    2.526002   -0.004024
  C     -5.735645    0.401269    1.404259
  C     -5.815086    0.545929   -0.986215
  C      4.101807   -2.908672    0.900365
  C      4.034241   -2.756672   -1.504154
  C      4.314338   -3.477690   -0.349620
  C     -7.090831    0.098514    1.433760
  C     -7.170420    0.243432   -0.962217
  C     -7.811969    0.017916    0.249167
  H      1.174166    1.716486    0.070314
  H      0.842967   -0.935049   -1.395842
  H      1.056249    0.659807   -2.150215
  H      1.181380    0.382736    2.139141
  H      0.918249   -1.102832    1.199888
  H     -1.043893    1.452736   -1.144502
  H     -1.342145   -0.038692   -2.046085
  H     -1.221892   -0.303084    2.085588
  H     -0.969288    1.291744    1.365271
  H     -3.135315   -0.945002   -0.855060
  H     -3.082243   -1.062643    0.893600
  H     -3.363829    1.548522   -0.686144
  H     -3.304869    1.432886    1.071321
  H      5.361971    0.687903   -1.000611
  H      5.410533    0.555366    0.732304
  H      3.433372   -1.161822    1.970451
  H      3.313524   -0.891261   -2.306789
  H      5.791572    3.060655    0.936914
  H      5.748218    3.194021   -0.846263
  H      7.015517    2.286181   -0.048567
  H     -5.178765    0.469131    2.334637
  H     -5.320758    0.727753   -1.936436
  H      4.318808   -3.471905    1.800200
  H      4.198490   -3.201396   -2.478461
  H      4.698741   -4.488146   -0.424303
  H     -7.585933   -0.070431    2.383767
  H     -7.727991    0.188159   -1.890780
  H     -8.870673   -0.214656    0.270285
  H      3.868666    3.304824    0.084572

 Multiplicity           Mult            ....    1
 Number of Electrons    NEL             ....  182
 Basis Dimension        Dim             ....  949

ORBITAL ENERGIES
----------------

  NO   OCC          E(Eh)            E(eV)
   0   2.0000     -19.447847      -529.2028
   1   2.0000     -14.638931      -398.3456
   2   2.0000     -14.495757      -394.4496
   3   2.0000     -10.581862      -287.9471
   4   2.0000     -10.457815      -284.5716
   5   2.0000     -10.452915      -284.4383
   6   2.0000     -10.451178      -284.3910
   7   2.0000     -10.421476      -283.5828
   8   2.0000     -10.414080      -283.3815
   9   2.0000     -10.414056      -283.3809
  10   2.0000     -10.404640      -283.1246
  11   2.0000     -10.404586      -283.1232
  12   2.0000     -10.402050      -283.0542
  13   2.0000     -10.396829      -282.9121
  14   2.0000     -10.396787      -282.9110
  15   2.0000     -10.388809      -282.6939
  16   2.0000     -10.388768      -282.6927
  17   2.0000     -10.374481      -282.3040
  18   2.0000     -10.344632      -281.4917
  19   2.0000     -10.343606      -281.4638
  20   2.0000     -10.331529      -281.1352
  21   2.0000     -10.331490      -281.1341
  22   2.0000     -10.330619      -281.1104
  23   2.0000     -10.330566      -281.1090
  24   2.0000     -10.327713      -281.0314
  25   2.0000      -1.421840       -38.6902
  26   2.0000      -1.280671       -34.8488
  27   2.0000      -1.168886       -31.8070
  28   2.0000      -1.131796       -30.7977
  29   2.0000      -1.097186       -29.8560
  30   2.0000      -1.064353       -28.9625
  31   2.0000      -1.056508       -28.7490
  32   2.0000      -1.030037       -28.0287
  33   2.0000      -1.019654       -27.7462
  34   2.0000      -1.005066       -27.3492
  35   2.0000      -0.991266       -26.9737
  36   2.0000      -0.962702       -26.1965
  37   2.0000      -0.938083       -25.5265
  38   2.0000      -0.929574       -25.2950
  39   2.0000      -0.922454       -25.1013
  40   2.0000      -0.885751       -24.1025
  41   2.0000      -0.883212       -24.0334
  42   2.0000      -0.864036       -23.5116
  43   2.0000      -0.859618       -23.3914
  44   2.0000      -0.839239       -22.8368
  45   2.0000      -0.814984       -22.1768
  46   2.0000      -0.802485       -21.8367
  47   2.0000      -0.790659       -21.5149
  48   2.0000      -0.787657       -21.4332
  49   2.0000      -0.772307       -21.0155
  50   2.0000      -0.767883       -20.8952
  51   2.0000      -0.763599       -20.7786
  52   2.0000      -0.733274       -19.9534
  53   2.0000      -0.715397       -19.4669
  54   2.0000      -0.703671       -19.1478
  55   2.0000      -0.695665       -18.9300
  56   2.0000      -0.693404       -18.8685
  57   2.0000      -0.689133       -18.7523
  58   2.0000      -0.679689       -18.4953
  59   2.0000      -0.674625       -18.3575
  60   2.0000      -0.668491       -18.1906
  61   2.0000      -0.666236       -18.1292
  62   2.0000      -0.661766       -18.0076
  63   2.0000      -0.658341       -17.9144
  64   2.0000      -0.645028       -17.5521
  65   2.0000      -0.640915       -17.4402
  66   2.0000      -0.635230       -17.2855
  67   2.0000      -0.626486       -17.0475
  68   2.0000      -0.622813       -16.9476
  69   2.0000      -0.615693       -16.7538
  70   2.0000      -0.614019       -16.7083
  71   2.0000      -0.599288       -16.3074
  72   2.0000      -0.598383       -16.2828
  73   2.0000      -0.589765       -16.0483
  74   2.0000      -0.586629       -15.9630
  75   2.0000      -0.583138       -15.8680
  76   2.0000      -0.577006       -15.7011
  77   2.0000      -0.575034       -15.6475
  78   2.0000      -0.561952       -15.2915
  79   2.0000      -0.557935       -15.1822
  80   2.0000      -0.540447       -14.7063
  81   2.0000      -0.536421       -14.5968
  82   2.0000      -0.526872       -14.3369
  83   2.0000      -0.524120       -14.2620
  84   2.0000      -0.502467       -13.6728
  85   2.0000      -0.499708       -13.5978
  86   2.0000      -0.484320       -13.1790
  87   2.0000      -0.482334       -13.1250
  88   2.0000      -0.420685       -11.4474
  89   2.0000      -0.406221       -11.0538
  90   2.0000      -0.390854       -10.6357
  91   0.0000      -0.093264        -2.5378
  92   0.0000      -0.074031        -2.0145
  93   0.0000      -0.064702        -1.7606
  94   0.0000      -0.037978        -1.0334
  95   0.0000      -0.009357        -0.2546

MULLIKEN ATOMIC CHARGES
-----------------------
   0 O :   -0.315976
   1 N :   -0.076287
   2 N :    0.105335
   3 C :   -0.024866
   4 C :   -0.171336
   5 C :   -0.171909
   6 C :   -0.223264
   7 C :   -0.223596
   8 C :   -0.272277
   9 C :   -0.255515
  10 C :    0.110258
  11 C :    0.264313
  12 C :    0.286660
  13 C :   -0.165793
  14 C :   -0.278687
  15 C :   -0.279672
  16 C :   -0.479816
  17 C :   -0.255731
  18 C :   -0.256025
  19 C :   -0.057706
  20 C :   -0.058848
  21 C :   -0.111202
  22 C :   -0.100017
  23 C :   -0.099963
  24 C :   -0.134310
  25 H :    0.137228
  26 H :    0.119807
  27 H :    0.118139
  28 H :    0.118213
  29 H :    0.120025
  30 H :    0.110942
  31 H :    0.133571
  32 H :    0.133764
  33 H :    0.110953
  34 H :    0.143089
  35 H :    0.143567
  36 H :    0.124529
  37 H :    0.124338
  38 H :    0.175020
  39 H :    0.174915
  40 H :    0.161343
  41 H :    0.161739
  42 H :    0.162217
  43 H :    0.160021
  44 H :    0.174660
  45 H :    0.112107
  46 H :    0.112347
  47 H :    0.155130
  48 H :    0.155053
  49 H :    0.156427
  50 H :    0.125702
  51 H :    0.125711
  52 H :    0.128558
  53 H :    0.367116
Sum of atomic charges:    1.0000000

LOEWDIN ATOMIC CHARGES
----------------------
   0 O :    0.202363
   1 N :    0.095796
   2 N :    0.333843
   3 C :   -0.212350
   4 C :   -0.223084
   5 C :   -0.223168
   6 C :   -0.268157
   7 C :   -0.268296
   8 C :   -0.269613
   9 C :   -0.218740
  10 C :   -0.167732
  11 C :   -0.252241
  12 C :   -0.149605
  13 C :   -0.224866
  14 C :   -0.106059
  15 C :   -0.105910
  16 C :   -0.291026
  17 C :   -0.115898
  18 C :   -0.115825
  19 C :   -0.107325
  20 C :   -0.107300
  21 C :   -0.100043
  22 C :   -0.131459
  23 C :   -0.131428
  24 C :   -0.135186
  25 H :    0.164241
  26 H :    0.149646
  27 H :    0.139303
  28 H :    0.139315
  29 H :    0.149687
  30 H :    0.124540
  31 H :    0.141736
  32 H :    0.141789
  33 H :    0.124564
  34 H :    0.138083
  35 H :    0.138178
  36 H :    0.139129
  37 H :    0.139133
  38 H :    0.172046
  39 H :    0.172024
  40 H :    0.155781
  41 H :    0.155757
  42 H :    0.129016
  43 H :    0.128642
  44 H :    0.144697
  45 H :    0.143420
  46 H :    0.143460
  47 H :    0.155674
  48 H :    0.155672
  49 H :    0.156010
  50 H :    0.144823
  51 H :    0.144829
  52 H :    0.144951
  53 H :    0.217162

  Mayer bond orders larger than 0.100000
B(  0-O , 11-C ) :   1.3150 B(  0-O , 53-H ) :   0.8383 B(  1-N ,  6-C ) :   0.9969
B(  1-N ,  7-C ) :   0.9968 B(  1-N ,  8-C ) :   0.9596 B(  2-N ,  3-C ) :   0.8352
B(  2-N , 10-C ) :   0.7340 B(  2-N , 11-C ) :   1.6022 B(  3-C ,  4-C ) :   0.9906
B(  3-C ,  5-C ) :   0.9907 B(  3-C , 25-H ) :   0.9568 B(  4-C ,  6-C ) :   1.0189
B(  4-C , 26-H ) :   0.9346 B(  4-C , 27-H ) :   0.9673 B(  5-C ,  7-C ) :   1.0190
B(  5-C , 28-H ) :   0.9674 B(  5-C , 29-H ) :   0.9344 B(  6-C , 30-H ) :   0.9755
B(  6-C , 31-H ) :   0.9617 B(  7-C , 32-H ) :   0.9616 B(  7-C , 33-H ) :   0.9756
B(  8-C ,  9-C ) :   0.8998 B(  8-C , 34-H ) :   0.9935 B(  8-C , 35-H ) :   0.9937
B(  9-C , 12-C ) :   0.8830 B(  9-C , 36-H ) :   0.9869 B(  9-C , 37-H ) :   0.9872
B( 10-C , 14-C ) :   1.4131 B( 10-C , 15-C ) :   1.4122 B( 11-C , 13-C ) :   1.0162
B( 12-C , 17-C ) :   1.3636 B( 12-C , 18-C ) :   1.3627 B( 13-C , 16-C ) :   0.9441
B( 13-C , 38-H ) :   0.9256 B( 13-C , 39-H ) :   0.9272 B( 14-C , 19-C ) :   1.4347
B( 14-C , 40-H ) :   0.9800 B( 15-C , 20-C ) :   1.4351 B( 15-C , 41-H ) :   0.9791
B( 16-C , 42-H ) :   0.9709 B( 16-C , 43-H ) :   0.9697 B( 16-C , 44-H ) :   0.9617
B( 17-C , 22-C ) :   1.4547 B( 17-C , 45-H ) :   0.9794 B( 18-C , 23-C ) :   1.4550
B( 18-C , 46-H ) :   0.9793 B( 19-C , 21-C ) :   1.4133 B( 19-C , 47-H ) :   0.9622
B( 20-C , 21-C ) :   1.4136 B( 20-C , 48-H ) :   0.9621 B( 21-C , 49-H ) :   0.9621
B( 22-C , 24-C ) :   1.4240 B( 22-C , 50-H ) :   0.9715 B( 23-C , 24-C ) :   1.4238
B( 23-C , 51-H ) :   0.9715 B( 24-C , 52-H ) :   0.9687

Dispersion correction           -0.120286647
FINAL SINGLE POINT ENERGY     -1041.207054200675

DIPOLE MOMENT
-------------
                                X             Y             Z
Electronic contribution:      0.36002      -3.76454      -0.26237
Nuclear contribution   :      5.78262       4.87508       0.14432
                        -----------------------------------------
Total Dipole Moment    :      6.14264       1.11054      -0.11806
                        -----------------------------------------
Magnitude (a.u.)       :      6.24334
Magnitude (Debye)      :     15.86930

Dispersion correction in the Hessian             ... done   (      2.8 sec)

VIBRATIONAL FREQUENCIES
-----------------------

Scaling factor for frequencies =  1.000000000  (already applied!)

   0:         0.00 cm**-1
   1:         0.00 cm**-1
   2:         0.00 cm**-1
   3:         0.00 cm**-1
   4:         0.00 cm**-1
   5:         0.00 cm**-1
   6:       -12.28 cm**-1 ***imaginary mode***
   7:        22.67 cm**-1
   8:        23.14 cm**-1
   9:        25.43 cm**-1
  10:        35.79 cm**-1
  11:        64.51 cm**-1
  12:        66.51 cm**-1
  13:        71.03 cm**-1
  14:        80.30 cm**-1
  15:        97.34 cm**-1
  16:       121.02 cm**-1
  17:       121.22 cm**-1
  18:       162.94 cm**-1
  19:       230.30 cm**-1
  20:       236.44 cm**-1
  21:       262.82 cm**-1
  22:       269.72 cm**-1
  23:       278.64 cm**-1
  24:       288.85 cm**-1
  25:       316.06 cm**-1
  26:       322.24 cm**-1
  27:       337.49 cm**-1
  28:       391.53 cm**-1
  29:       395.98 cm**-1
  30:       414.85 cm**-1
  31:       417.87 cm**-1
  32:       425.52 cm**-1
  33:       469.85 cm**-1
  34:       471.35 cm**-1
  35:       504.06 cm**-1
  36:       506.37 cm**-1
  37:       518.18 cm**-1
  38:       543.16 cm**-1
  39:       559.65 cm**-1
  40:       622.65 cm**-1
  41:       627.51 cm**-1
  42:       639.05 cm**-1
  43:       639.24 cm**-1
  44:       662.76 cm**-1
  45:       683.86 cm**-1
  46:       725.53 cm**-1
  47:       730.29 cm**-1
  48:       761.09 cm**-1
  49:       777.49 cm**-1
  50:       777.74 cm**-1
  51:       807.35 cm**-1
  52:       811.31 cm**-1
  53:       812.77 cm**-1
  54:       848.78 cm**-1
  55:       859.14 cm**-1
  56:       872.71 cm**-1
  57:       876.28 cm**-1
  58:       880.80 cm**-1
  59:       941.43 cm**-1
  60:       946.46 cm**-1
  61:       958.78 cm**-1
  62:       972.48 cm**-1
  63:      1000.13 cm**-1
  64:      1007.65 cm**-1
  65:      1011.99 cm**-1
  66:      1018.48 cm**-1
  67:      1023.59 cm**-1
  68:      1027.37 cm**-1
  69:      1033.05 cm**-1
  70:      1036.41 cm**-1
  71:      1043.08 cm**-1
  72:      1046.91 cm**-1
  73:      1047.61 cm**-1
  74:      1047.87 cm**-1
  75:      1063.88 cm**-1
  76:      1068.82 cm**-1
  77:      1078.20 cm**-1
  78:      1116.22 cm**-1
  79:      1117.55 cm**-1
  80:      1118.28 cm**-1
  81:      1119.78 cm**-1
  82:      1148.32 cm**-1
  83:      1154.44 cm**-1
  84:      1167.70 cm**-1
  85:      1184.26 cm**-1
  86:      1189.62 cm**-1
  87:      1194.22 cm**-1
  88:      1198.32 cm**-1
  89:      1206.25 cm**-1
  90:      1211.04 cm**-1
  91:      1236.85 cm**-1
  92:      1248.98 cm**-1
  93:      1252.59 cm**-1
  94:      1279.96 cm**-1
  95:      1299.29 cm**-1
  96:      1303.95 cm**-1
  97:      1314.63 cm**-1
  98:      1315.92 cm**-1
  99:      1326.65 cm**-1
 100:      1329.82 cm**-1
 101:      1343.91 cm**-1
 102:      1347.28 cm**-1
 103:      1360.98 cm**-1
 104:      1369.59 cm**-1
 105:      1370.91 cm**-1
 106:      1381.45 cm**-1
 107:      1385.86 cm**-1
 108:      1400.27 cm**-1
 109:      1403.79 cm**-1
 110:      1413.24 cm**-1
 111:      1429.23 cm**-1
 112:      1443.31 cm**-1
 113:      1447.16 cm**-1
 114:      1455.04 cm**-1
 115:      1484.26 cm**-1
 116:      1489.95 cm**-1
 117:      1492.01 cm**-1
 118:      1507.01 cm**-1
 119:      1508.69 cm**-1
 120:      1509.95 cm**-1
 121:      1510.38 cm**-1
 122:      1510.87 cm**-1
 123:      1517.69 cm**-1
 124:      1519.33 cm**-1
 125:      1524.84 cm**-1
 126:      1553.32 cm**-1
 127:      1555.11 cm**-1
 128:      1673.49 cm**-1
 129:      1680.22 cm**-1
 130:      1682.22 cm**-1
 131:      1695.11 cm**-1
 132:      1732.67 cm**-1
 133:      2957.19 cm**-1
 134:      2961.37 cm**-1
 135:      3059.43 cm**-1
 136:      3065.90 cm**-1
 137:      3073.55 cm**-1
 138:      3075.40 cm**-1
 139:      3076.95 cm**-1
 140:      3099.98 cm**-1
 141:      3103.11 cm**-1
 142:      3115.21 cm**-1
 143:      3117.83 cm**-1
 144:      3122.35 cm**-1
 145:      3126.06 cm**-1
 146:      3133.87 cm**-1
 147:      3136.51 cm**-1
 148:      3143.38 cm**-1
 149:      3161.63 cm**-1
 150:      3167.10 cm**-1
 151:      3181.47 cm**-1
 152:      3181.72 cm**-1
 153:      3202.54 cm**-1
 154:      3210.74 cm**-1
 155:      3212.00 cm**-1
 156:      3213.82 cm**-1
 157:      3221.02 cm**-1
 158:      3225.08 cm**-1
 159:      3229.69 cm**-1
 160:      3237.53 cm**-1
 161:      3783.10 cm**-1

IR SPECTRUM
-----------

 Mode   freq       eps      Int      T**2         TX        TY        TZ
       cm**-1   L/(mol*cm) km/mol    a.u.
----------------------------------------------------------------------------
  7:     22.67   0.000026    0.13  0.000355  ( 0.000557  0.000294 -0.018826)
  8:     23.14   0.000033    0.16  0.000438  ( 0.014455 -0.015142 -0.000306)
  9:     25.43   0.000002    0.01  0.000019  ( 0.000178 -0.000011 -0.004330)
 10:     35.79   0.000113    0.57  0.000981  ( 0.001370 -0.001818  0.031246)
 11:     64.51   0.000094    0.47  0.000454  ( 0.000731 -0.001233  0.021254)
 12:     66.51   0.000220    1.11  0.001034  (-0.019299  0.025615  0.002236)
 13:     71.03   0.000000    0.00  0.000002  ( 0.000595 -0.000855 -0.000854)
 14:     80.30   0.000042    0.21  0.000165  ( 0.012041  0.004443 -0.000243)
 15:     97.34   0.000172    0.87  0.000550  ( 0.000971 -0.001558  0.023383)
 16:    121.02   0.000069    0.35  0.000177  (-0.005571 -0.005508  0.010767)
 17:    121.22   0.000064    0.33  0.000166  ( 0.006711  0.004642  0.009962)
 18:    162.94   0.000064    0.32  0.000122  ( 0.010051 -0.004596 -0.000541)
 19:    230.30   0.000316    1.60  0.000428  ( 0.019295  0.007462 -0.000179)
 20:    236.44   0.000023    0.11  0.000030  (-0.000497  0.000188 -0.005436)
 21:    262.82   0.000000    0.00  0.000000  ( 0.000084 -0.000006 -0.000519)
 22:    269.72   0.000622    3.14  0.000720  (-0.026366 -0.004917  0.000536)
 23:    278.64   0.000141    0.71  0.000158  ( 0.000663 -0.000697  0.012515)
 24:    288.85   0.000296    1.49  0.000319  ( 0.006924  0.016461  0.000768)
 25:    316.06   0.000108    0.55  0.000107  ( 0.005072  0.008989  0.000457)
 26:    322.24   0.000293    1.48  0.000283  ( 0.006974 -0.015273 -0.001257)
 27:    337.49   0.000000    0.00  0.000000  (-0.000064 -0.000007  0.000138)
 28:    391.53   0.000079    0.40  0.000063  (-0.000257  0.000565 -0.007921)
 29:    395.98   0.001996   10.09  0.001573  (-0.015360  0.036449  0.002874)
 30:    414.85   0.000094    0.48  0.000071  ( 0.008110  0.002297 -0.000063)
 31:    417.87   0.000000    0.00  0.000000  (-0.000001  0.000006  0.000149)
 32:    425.52   0.000006    0.03  0.000004  (-0.000080  0.000079 -0.002114)
 33:    469.85   0.000004    0.02  0.000002  (-0.000326 -0.000125  0.001485)
 34:    471.35   0.000154    0.78  0.000102  (-0.010070 -0.000875  0.000223)
 35:    504.06   0.001002    5.07  0.000621  (-0.021691 -0.009706 -0.007471)
 36:    506.37   0.003017   15.24  0.001859  (-0.002325 -0.004496  0.042819)
 37:    518.18   0.003037   15.35  0.001829  (-0.014107  0.040269  0.002929)
 38:    543.16   0.012145   61.38  0.006978  ( 0.002643 -0.004862  0.083350)
 39:    559.65   0.000863    4.36  0.000481  ( 0.019945 -0.009038 -0.001366)
 40:    622.65   0.000468    2.37  0.000235  (-0.001229  0.003000  0.014973)
 41:    627.51   0.002420   12.23  0.001203  ( 0.016379 -0.030573 -0.000662)
 42:    639.05   0.000036    0.18  0.000018  (-0.004180 -0.000235  0.000511)
 43:    639.24   0.002366   11.96  0.001155  (-0.033923 -0.001788  0.000992)
 44:    662.76   0.000087    0.44  0.000041  (-0.000284  0.001089 -0.006307)
 45:    683.86   0.000078    0.39  0.000036  (-0.003137  0.005072  0.000286)
 46:    725.53   0.007184   36.30  0.003090  (-0.007825  0.054917  0.003584)
 47:    730.29   0.008783   44.39  0.003753  (-0.060208 -0.011273  0.001031)
 48:    761.09   0.005298   26.77  0.002172  (-0.040748 -0.022620 -0.000247)
 49:    777.49   0.007835   39.60  0.003145  (-0.014507  0.053856  0.005828)
 50:    777.74   0.000934    4.72  0.000375  (-0.004930  0.018021 -0.005064)
 51:    807.35   0.000284    1.44  0.000110  (-0.004768  0.009299  0.000840)
 52:    811.31   0.001938    9.79  0.000745  ( 0.001825 -0.001459  0.027203)
 53:    812.77   0.002299   11.62  0.000883  ( 0.027984  0.009897 -0.001254)
 54:    848.78   0.000048    0.24  0.000018  ( 0.000087 -0.000161  0.004211)
 55:    859.14   0.000040    0.20  0.000015  ( 0.001009  0.003674  0.000238)
 56:    872.71   0.000563    2.85  0.000201  ( 0.003867  0.013641  0.000573)
 57:    876.28   0.000001    0.01  0.000000  ( 0.000026  0.000002  0.000598)
 58:    880.80   0.000047    0.24  0.000017  ( 0.000164 -0.000247  0.004084)
 59:    941.43   0.005078   25.66  0.001683  ( 0.016564 -0.037443 -0.002650)
 60:    946.46   0.000309    1.56  0.000102  ( 0.002836 -0.009661 -0.000640)
 61:    958.78   0.000224    1.13  0.000073  ( 0.000082 -0.000313  0.008542)
 62:    972.48   0.000304    1.54  0.000098  (-0.008814  0.004440  0.000468)
 63:   1000.13   0.000001    0.00  0.000000  ( 0.000045 -0.000028  0.000409)
 64:   1007.65   0.000020    0.10  0.000006  (-0.000550  0.002438  0.000191)
 65:   1011.99   0.000158    0.80  0.000049  ( 0.000182 -0.000413  0.006960)
 66:   1018.48   0.000003    0.01  0.000001  ( 0.000841 -0.000355 -0.000052)
 67:   1023.59   0.000002    0.01  0.000001  (-0.000081 -0.000143 -0.000739)
 68:   1027.37   0.004702   23.76  0.001428  ( 0.012843  0.035495  0.001810)
 69:   1033.05   0.000309    1.56  0.000093  ( 0.009067 -0.003289 -0.000518)
 70:   1036.41   0.000127    0.64  0.000038  (-0.000066  0.006163  0.000420)
 71:   1043.08   0.004032   20.38  0.001206  (-0.028348  0.019991  0.001728)
 72:   1046.91   0.000131    0.66  0.000039  (-0.001785  0.005998  0.000111)
 73:   1047.61   0.000832    4.20  0.000248  (-0.001355 -0.013172  0.008509)
 74:   1047.87   0.000860    4.35  0.000256  (-0.000933 -0.010487 -0.012055)
 75:   1063.88   0.001408    7.12  0.000413  (-0.016414 -0.011986 -0.000244)
 76:   1068.82   0.000685    3.46  0.000200  (-0.013932 -0.002379  0.000337)
 77:   1078.20   0.013827   69.88  0.004002  (-0.062723 -0.008124  0.001377)
 78:   1116.22   0.003071   15.52  0.000859  ( 0.027816  0.009215  0.000178)
 79:   1117.55   0.001009    5.10  0.000282  ( 0.000256 -0.001042  0.016755)
 80:   1118.28   0.000622    3.15  0.000174  (-0.000070 -0.001134  0.013130)
 81:   1119.78   0.000078    0.39  0.000022  (-0.000224  0.000212 -0.004637)
 82:   1148.32   0.000000    0.00  0.000000  ( 0.000082 -0.000055  0.000067)
 83:   1154.44   0.004738   23.95  0.001281  (-0.034942 -0.007687  0.000895)
 84:   1167.70   0.003700   18.70  0.000989  ( 0.001037 -0.001962  0.031367)
 85:   1184.26   0.000632    3.19  0.000166  ( 0.000426 -0.000822  0.012867)
 86:   1189.62   0.000136    0.69  0.000036  (-0.000211  0.000394 -0.005953)
 87:   1194.22   0.007084   35.80  0.001851  ( 0.041633 -0.010674 -0.002004)
 88:   1198.32   0.000106    0.54  0.000028  (-0.000818  0.000496 -0.005168)
 89:   1206.25   0.000507    2.56  0.000131  (-0.006032  0.009707  0.000743)
 90:   1211.04   0.000029    0.15  0.000008  (-0.002159 -0.001713 -0.000017)
 91:   1236.85   0.009434   47.68  0.002380  ( 0.001446 -0.048683 -0.002855)
 92:   1248.98   0.000151    0.76  0.000038  (-0.005608  0.002466  0.000355)
 93:   1252.59   0.000084    0.42  0.000021  (-0.000048  0.000127 -0.004573)
 94:   1279.96   0.009648   48.76  0.002352  (-0.025496  0.041136  0.003178)
 95:   1299.29   0.001058    5.35  0.000254  ( 0.000549 -0.000957  0.015903)
 96:   1303.95   0.000440    2.22  0.000105  (-0.000586  0.001181 -0.010171)
 97:   1314.63   0.000474    2.39  0.000112  (-0.007190 -0.007770 -0.000637)
 98:   1315.92   0.000373    1.88  0.000088  ( 0.000023 -0.000646  0.009382)
 99:   1326.65   0.000185    0.94  0.000044  ( 0.006084  0.002559 -0.000197)
100:   1329.82   0.000075    0.38  0.000018  (-0.000521  0.000152 -0.004150)
101:   1343.91   0.000007    0.04  0.000002  (-0.000331  0.000016 -0.001268)
102:   1347.28   0.006784   34.28  0.001571  (-0.038792 -0.008143  0.000476)
103:   1360.98   0.000189    0.95  0.000043  ( 0.000243 -0.000413  0.006560)
104:   1369.59   0.003174   16.04  0.000723  ( 0.026009 -0.006705 -0.001374)
105:   1370.91   0.000179    0.90  0.000041  ( 0.000277 -0.000464  0.006354)
106:   1381.45   0.002869   14.50  0.000648  (-0.000303  0.001758 -0.025395)
107:   1385.86   0.000689    3.48  0.000155  (-0.012032 -0.003207 -0.000278)
108:   1400.27   0.000052    0.26  0.000011  (-0.000166  0.000259 -0.003375)
109:   1403.79   0.000211    1.07  0.000047  (-0.000451  0.000390 -0.006820)
110:   1413.24   0.009897   50.01  0.002185  ( 0.046716  0.000950 -0.001400)
111:   1429.23   0.015715   79.42  0.003431  (-0.006624  0.058064  0.004000)
112:   1443.31   0.008302   41.95  0.001795  (-0.039906 -0.014227  0.000371)
113:   1447.16   0.010670   53.92  0.002301  (-0.030162  0.037174  0.003049)
114:   1455.04   0.006056   30.61  0.001299  ( 0.015892 -0.032257 -0.002424)
115:   1484.26   0.015583   78.75  0.003276  (-0.021797  0.052787  0.003836)
116:   1489.95   0.000045    0.23  0.000009  (-0.000050  0.000074 -0.003060)
117:   1492.01   0.000615    3.11  0.000129  ( 0.007032  0.008885  0.000365)
118:   1507.01   0.003364   17.00  0.000697  (-0.015576  0.021247  0.001590)
119:   1508.69   0.000421    2.13  0.000087  (-0.000286 -0.000045  0.009322)
120:   1509.95   0.000645    3.26  0.000133  (-0.011498  0.001020  0.000238)
121:   1510.38   0.002249   11.37  0.000465  (-0.000567  0.001235 -0.021514)
122:   1510.87   0.000006    0.03  0.000001  ( 0.000127  0.000131 -0.001059)
123:   1517.69   0.003004   15.18  0.000618  (-0.007212  0.005393 -0.023166)
124:   1519.33   0.005412   27.35  0.001112  (-0.029561  0.013753  0.006972)
125:   1524.84   0.001967    9.94  0.000402  (-0.020004 -0.001452  0.000442)
126:   1553.32   0.005975   30.20  0.001200  ( 0.017827 -0.029614 -0.002370)
127:   1555.11   0.003372   17.04  0.000677  ( 0.025634  0.004391 -0.000593)
128:   1673.49   0.000335    1.69  0.000062  ( 0.000224 -0.000473  0.007883)
129:   1680.22   0.000867    4.38  0.000161  ( 0.000424 -0.000669  0.012663)
130:   1682.22   0.003405   17.21  0.000632  ( 0.010355  0.022875  0.001077)
131:   1695.11   0.001994   10.08  0.000367  ( 0.019140  0.000610 -0.000587)
132:   1732.67   0.077792  393.13  0.014011  ( 0.082326  0.085001  0.002840)
133:   2957.19   0.002924   14.78  0.000309  ( 0.000690 -0.001978  0.017440)
134:   2961.37   0.015711   79.40  0.001656  ( 0.009720 -0.039385 -0.003163)
135:   3059.43   0.001343    6.79  0.000137  ( 0.003960 -0.010991 -0.000697)
136:   3065.90   0.000216    1.09  0.000022  (-0.003599 -0.003004 -0.000133)
137:   3073.55   0.009759   49.32  0.000991  ( 0.022264  0.022244  0.000629)
138:   3075.40   0.003023   15.28  0.000307  (-0.000895  0.001175 -0.017451)
139:   3076.95   0.004917   24.85  0.000499  (-0.022104  0.002967  0.001121)
140:   3099.98   0.001495    7.55  0.000150  ( 0.010564  0.006235 -0.000135)
141:   3103.11   0.000098    0.50  0.000010  (-0.000200  0.000115 -0.003132)
142:   3115.21   0.003226   16.30  0.000323  (-0.000464  0.001165 -0.017932)
143:   3117.83   0.001313    6.63  0.000131  ( 0.009063  0.007018  0.000139)
144:   3122.35   0.001153    5.83  0.000115  (-0.000612  0.000679 -0.010696)
145:   3126.06   0.006044   30.55  0.000603  ( 0.000885 -0.001505  0.024502)
146:   3133.87   0.003231   16.33  0.000322  (-0.005603 -0.017026 -0.000654)
147:   3136.51   0.000895    4.52  0.000089  (-0.000436  0.000162 -0.009427)
148:   3143.38   0.000192    0.97  0.000019  (-0.000126  0.000318 -0.004350)
149:   3161.63   0.001630    8.24  0.000161  ( 0.004910 -0.011657 -0.000916)
150:   3167.10   0.000174    0.88  0.000017  (-0.003332  0.002439  0.000371)
151:   3181.47   0.001731    8.75  0.000170  (-0.000881 -0.001045  0.012957)
152:   3181.72   0.002587   13.08  0.000254  ( 0.015606  0.003103  0.000777)
153:   3202.54   0.000304    1.54  0.000030  (-0.005150 -0.001757  0.000023)
154:   3210.74   0.000297    1.50  0.000029  (-0.002554  0.004710  0.000390)
155:   3212.00   0.003683   18.61  0.000358  ( 0.000610 -0.001140  0.018871)
156:   3213.82   0.000011    0.06  0.000001  (-0.000072  0.000115 -0.001047)
157:   3221.02   0.000543    2.74  0.000053  ( 0.003205 -0.006491 -0.000471)
158:   3225.08   0.002068   10.45  0.000200  (-0.013978 -0.002141  0.000317)
159:   3229.69   0.000168    0.85  0.000016  (-0.000086  0.000208 -0.004018)
160:   3237.53   0.000048    0.24  0.000005  ( 0.000876 -0.001956 -0.000134)
161:   3783.10   0.058159  293.91  0.004797  (-0.044641 -0.052919 -0.002073)

--------------------------
THERMOCHEMISTRY AT 298.15K
--------------------------

Temperature         ... 298.15 K
Pressure            ... 1.00 atm
Total Mass          ... 337.49 AMU

Throughout the following assumptions are being made:
  (1) The electronic state is orbitally nondegenerate
  (2) There are no thermally accessible electronically excited states
  (3) Hindered rotations indicated by low frequency modes are not
      treated as such but are treated as vibrations and this may
      cause some error
  (4) All equations used are the standard statistical mechanics
      equations for an ideal gas
  (5) All vibrations are strictly harmonic

freq.      22.67  E(vib)   ...       0.56
freq.      23.14  E(vib)   ...       0.56
freq.      25.43  E(vib)   ...       0.56
freq.      35.79  E(vib)   ...       0.54
freq.      64.51  E(vib)   ...       0.51
freq.      66.51  E(vib)   ...       0.50
freq.      71.03  E(vib)   ...       0.50
freq.      80.30  E(vib)   ...       0.49
freq.      97.34  E(vib)   ...       0.46
freq.     121.02  E(vib)   ...       0.44
freq.     121.22  E(vib)   ...       0.44
freq.     162.94  E(vib)   ...       0.39
freq.     230.30  E(vib)   ...       0.32
freq.     236.44  E(vib)   ...       0.32
freq.     262.82  E(vib)   ...       0.29
freq.     269.72  E(vib)   ...       0.29
freq.     278.64  E(vib)   ...       0.28
freq.     288.85  E(vib)   ...       0.27
freq.     316.06  E(vib)   ...       0.25
freq.     322.24  E(vib)   ...       0.25
freq.     337.49  E(vib)   ...       0.24
freq.     391.53  E(vib)   ...       0.20
freq.     395.98  E(vib)   ...       0.20
freq.     414.85  E(vib)   ...       0.19
freq.     417.87  E(vib)   ...       0.18
freq.     425.52  E(vib)   ...       0.18
freq.     469.85  E(vib)   ...       0.16
freq.     471.35  E(vib)   ...       0.15
freq.     504.06  E(vib)   ...       0.14
freq.     506.37  E(vib)   ...       0.14
freq.     518.18  E(vib)   ...       0.13
freq.     543.16  E(vib)   ...       0.12
freq.     559.65  E(vib)   ...       0.12
freq.     622.65  E(vib)   ...       0.09
freq.     627.51  E(vib)   ...       0.09
freq.     639.05  E(vib)   ...       0.09
freq.     639.24  E(vib)   ...       0.09
freq.     662.76  E(vib)   ...       0.08
freq.     683.86  E(vib)   ...       0.07
freq.     725.53  E(vib)   ...       0.06
freq.     730.29  E(vib)   ...       0.06
freq.     761.09  E(vib)   ...       0.06
freq.     777.49  E(vib)   ...       0.05
freq.     777.74  E(vib)   ...       0.05
freq.     807.35  E(vib)   ...       0.05
freq.     811.31  E(vib)   ...       0.05
freq.     812.77  E(vib)   ...       0.05
freq.     848.78  E(vib)   ...       0.04
freq.     859.14  E(vib)   ...       0.04
freq.     872.71  E(vib)   ...       0.04
freq.     876.28  E(vib)   ...       0.04
freq.     880.80  E(vib)   ...       0.04
freq.     941.43  E(vib)   ...       0.03
freq.     946.46  E(vib)   ...       0.03
freq.     958.78  E(vib)   ...       0.03
freq.     972.48  E(vib)   ...       0.03
freq.    1000.13  E(vib)   ...       0.02
freq.    1007.65  E(vib)   ...       0.02
freq.    1011.99  E(vib)   ...       0.02
freq.    1018.48  E(vib)   ...       0.02
freq.    1023.59  E(vib)   ...       0.02
freq.    1027.37  E(vib)   ...       0.02
freq.    1033.05  E(vib)   ...       0.02
freq.    1036.41  E(vib)   ...       0.02
freq.    1043.08  E(vib)   ...       0.02
freq.    1046.91  E(vib)   ...       0.02
freq.    1047.61  E(vib)   ...       0.02
freq.    1047.87  E(vib)   ...       0.02
freq.    1063.88  E(vib)   ...       0.02
freq.    1068.82  E(vib)   ...       0.02
freq.    1078.20  E(vib)   ...       0.02
freq.    1116.22  E(vib)   ...       0.01
freq.    1117.55  E(vib)   ...       0.01
freq.    1118.28  E(vib)   ...       0.01
freq.    1119.78  E(vib)   ...       0.01
freq.    1148.32  E(vib)   ...       0.01
freq.    1154.44  E(vib)   ...       0.01
freq.    1167.70  E(vib)   ...       0.01
freq.    1184.26  E(vib)   ...       0.01
freq.    1189.62  E(vib)   ...       0.01
freq.    1194.22  E(vib)   ...       0.01
freq.    1198.32  E(vib)   ...       0.01
freq.    1206.25  E(vib)   ...       0.01
freq.    1211.04  E(vib)   ...       0.01
freq.    1236.85  E(vib)   ...       0.01
freq.    1248.98  E(vib)   ...       0.01
freq.    1252.59  E(vib)   ...       0.01
freq.    1279.96  E(vib)   ...       0.01
freq.    1299.29  E(vib)   ...       0.01
freq.    1303.95  E(vib)   ...       0.01
freq.    1314.63  E(vib)   ...       0.01
freq.    1315.92  E(vib)   ...       0.01
freq.    1326.65  E(vib)   ...       0.01
freq.    1329.82  E(vib)   ...       0.01
freq.    1343.91  E(vib)   ...       0.01
freq.    1347.28  E(vib)   ...       0.01
freq.    1360.98  E(vib)   ...       0.01
freq.    1369.59  E(vib)   ...       0.01
freq.    1370.91  E(vib)   ...       0.01
freq.    1381.45  E(vib)   ...       0.01
freq.    1385.86  E(vib)   ...       0.00
freq.    1400.27  E(vib)   ...       0.00
freq.    1403.79  E(vib)   ...       0.00
freq.    1413.24  E(vib)   ...       0.00
freq.    1429.23  E(vib)   ...       0.00
freq.    1443.31  E(vib)   ...       0.00
freq.    1447.16  E(vib)   ...       0.00
freq.    1455.04  E(vib)   ...       0.00
freq.    1484.26  E(vib)   ...       0.00
freq.    1489.95  E(vib)   ...       0.00
freq.    1492.01  E(vib)   ...       0.00
freq.    1507.01  E(vib)   ...       0.00
freq.    1508.69  E(vib)   ...       0.00
freq.    1509.95  E(vib)   ...       0.00
freq.    1510.38  E(vib)   ...       0.00
freq.    1510.87  E(vib)   ...       0.00
freq.    1517.69  E(vib)   ...       0.00
freq.    1519.33  E(vib)   ...       0.00
freq.    1524.84  E(vib)   ...       0.00
freq.    1553.32  E(vib)   ...       0.00
freq.    1555.11  E(vib)   ...       0.00
freq.    1673.49  E(vib)   ...       0.00
freq.    1680.22  E(vib)   ...       0.00
freq.    1682.22  E(vib)   ...       0.00
freq.    1695.11  E(vib)   ...       0.00
freq.    1732.67  E(vib)   ...       0.00
freq.    2957.19  E(vib)   ...       0.00
freq.    2961.37  E(vib)   ...       0.00
freq.    3059.43  E(vib)   ...       0.00
freq.    3065.90  E(vib)   ...       0.00
freq.    3073.55  E(vib)   ...       0.00
freq.    3075.40  E(vib)   ...       0.00
freq.    3076.95  E(vib)   ...       0.00
freq.    3099.98  E(vib)   ...       0.00
freq.    3103.11  E(vib)   ...       0.00
freq.    3115.21  E(vib)   ...       0.00
freq.    3117.83  E(vib)   ...       0.00
freq.    3122.35  E(vib)   ...       0.00
freq.    3126.06  E(vib)   ...       0.00
freq.    3133.87  E(vib)   ...       0.00
freq.    3136.51  E(vib)   ...       0.00
freq.    3143.38  E(vib)   ...       0.00
freq.    3161.63  E(vib)   ...       0.00
freq.    3167.10  E(vib)   ...       0.00

Rotational constants in cm-1:     0.016289     0.002590     0.002414

                             ****ORCA TERMINATED NORMALLY****
TOTAL RUN TIME: 0 days 6 hours 1 minutes 26 seconds 193 msec
