                         Program Version 5.0.4 -  RELEASE  -
|  1> ! DLPNO-CCSD(T) def2-TZVP def2-TZVP/C VeryTightSCF
|  2> %maxcore 3400
|  3>
|  4> %pal nprocs 8
|  5> end
|  6>
|  7> *xyz 1 1
|  8> O             2.517049         1.720998        -1.448582
|  9> N            -1.406386         1.375103         1.053013
| 10> N             1.546222         0.692875         0.267830
| 11> C             1.196092         2.051588         0.825808
| 12> C             0.188739         2.800637        -0.072259
| 13> C             0.659262         1.976721         2.250078
| 14> C            -1.238885         2.694592         0.466858
| 15> C            -0.738549         1.340611         2.347962
| 16> C            -2.782130         0.910272         1.152939
| 17> C            -3.465982         0.694662        -0.202782
| 18> C             1.273731        -0.527871         1.004086
| 19> C             2.186446         0.596017        -0.855714
| 20> C            -2.705964        -0.246530        -1.103337
| 21> C             2.549902        -0.720175        -1.482251
| 22> C             2.134593        -0.892886         2.029097
| 23> C             0.184323        -1.305468         0.654812
| 24> C             3.377301        -0.598994        -2.758231
| 25> C            -2.851699        -1.626434        -0.971041
| 26> C            -1.818078         0.235564        -2.063351
| 27> C             1.879365        -2.059028         2.738493
| 28> C            -0.056981        -2.474116         1.363537
| 29> C             0.782574        -2.846767         2.406901
| 30> C            -2.117558        -2.502994        -1.760721
| 31> C            -1.079621        -0.635502        -2.855804
| 32> C            -1.221182        -2.010359        -2.701879
| 33> H             2.143285         2.593288         0.834651
| 34> H             0.218677         2.395464        -1.082427
| 35> H             0.497210         3.846589        -0.140868
| 36> H             0.614151         3.018390         2.578253
| 37> H             1.357134         1.478046         2.921965
| 38> H            -1.450101         3.491628         1.199253
| 39> H            -1.941246         2.834964        -0.353010
| 40> H            -0.669013         0.302423         2.677762
| 41> H            -1.320515         1.885542         3.109737
| 42> H            -2.755147        -0.045497         1.686625
| 43> H            -3.396866         1.597020         1.758842
| 44> H            -3.620878         1.648954        -0.711024
| 45> H            -4.462492         0.291769        -0.004116
| 46> H             1.610776        -1.245760        -1.676083
| 47> H             3.071371        -1.311911        -0.726276
| 48> H             2.991152        -0.273379         2.272152
| 49> H            -0.470926        -0.986616        -0.142173
| 50> H             3.600763        -1.595938        -3.136942
| 51> H             4.337598        -0.103721        -2.585856
| 52> H             2.834753        -0.078506        -3.554214
| 53> H            -3.554984        -2.019654        -0.242889
| 54> H            -1.717507         1.306586        -2.205351
| 55> H             2.538897        -2.352577         3.546541
| 56> H            -0.908495        -3.089144         1.097648
| 57> H             0.585742        -3.756770         2.961880
| 58> H            -2.254467        -3.573248        -1.650983
| 59> H            -0.414239        -0.239920        -3.617389
| 60> H            -0.661243        -2.693728        -3.330954
| 61> H             2.993892         1.544654        -2.271919
| 62> *
| 63>
| 64>
| 65>                          ****END OF INPUT****

CARTESIAN COORDINATES (ANGSTROEM)
---------------------------------
  O      2.517049    1.720998   -1.448582
  N     -1.406386    1.375103    1.053013
  N      1.546222    0.692875    0.267830
  C      1.196092    2.051588    0.825808
  C      0.188739    2.800637   -0.072259
  C      0.659262    1.976721    2.250078
  C     -1.238885    2.694592    0.466858
  C     -0.738549    1.340611    2.347962
  C     -2.782130    0.910272    1.152939
  C     -3.465982    0.694662   -0.202782
  C      1.273731   -0.527871    1.004086
  C      2.186446    0.596017   -0.855714
  C     -2.705964   -0.246530   -1.103337
  C      2.549902   -0.720175   -1.482251
  C      2.134593   -0.892886    2.029097
  C      0.184323   -1.305468    0.654812
  C      3.377301   -0.598994   -2.758231
  C     -2.851699   -1.626434   -0.971041
  C     -1.818078    0.235564   -2.063351
  C      1.879365   -2.059028    2.738493
  C     -0.056981   -2.474116    1.363537
  C      0.782574   -2.846767    2.406901
  C     -2.117558   -2.502994   -1.760721
  C     -1.079621   -0.635502   -2.855804
  C     -1.221182   -2.010359   -2.701879
  H      2.143285    2.593288    0.834651
  H      0.218677    2.395464   -1.082427
  H      0.497210    3.846589   -0.140868
  H      0.614151    3.018390    2.578253
  H      1.357134    1.478046    2.921965
  H     -1.450101    3.491628    1.199253
  H     -1.941246    2.834964   -0.353010
  H     -0.669013    0.302423    2.677762
  H     -1.320515    1.885542    3.109737
  H     -2.755147   -0.045497    1.686625
  H     -3.396866    1.597020    1.758842
  H     -3.620878    1.648954   -0.711024
  H     -4.462492    0.291769   -0.004116
  H      1.610776   -1.245760   -1.676083
  H      3.071371   -1.311911   -0.726276
  H      2.991152   -0.273379    2.272152
  H     -0.470926   -0.986616   -0.142173
  H      3.600763   -1.595938   -3.136942
  H      4.337598   -0.103721   -2.585856
  H      2.834753   -0.078506   -3.554214
  H     -3.554984   -2.019654   -0.242889
  H     -1.717507    1.306586   -2.205351
  H      2.538897   -2.352577    3.546541
  H     -0.908495   -3.089144    1.097648
  H      0.585742   -3.756770    2.961880
  H     -2.254467   -3.573248   -1.650983
  H     -0.414239   -0.239920   -3.617389
  H     -0.661243   -2.693728   -3.330954
  H      2.993892    1.544654   -2.271919

 Total Charge           Charge          ....    1
 Multiplicity           Mult            ....    1
 Number of Electrons    NEL             ....  182
 Basis Dimension        Dim             ....  949

ORBITAL ENERGIES
----------------

  NO   OCC          E(Eh)            E(eV)
   0   2.0000     -20.783922      -565.5593
   1   2.0000     -15.773330      -429.2141
   2   2.0000     -15.646913      -425.7742
   3   2.0000     -11.545279      -314.1630
   4   2.0000     -11.407320      -310.4089
   5   2.0000     -11.398188      -310.1605
   6   2.0000     -11.395393      -310.0844
   7   2.0000     -11.369772      -309.3872
   8   2.0000     -11.359079      -309.0962
   9   2.0000     -11.351344      -308.8858
  10   2.0000     -11.350631      -308.8664
  11   2.0000     -11.349387      -308.8325
  12   2.0000     -11.348223      -308.8008
  13   2.0000     -11.347969      -308.7939
  14   2.0000     -11.347077      -308.7697
  15   2.0000     -11.345398      -308.7240
  16   2.0000     -11.341353      -308.6139
  17   2.0000     -11.338940      -308.5483
  18   2.0000     -11.336285      -308.4760
  19   2.0000     -11.335203      -308.4466
  20   2.0000     -11.330623      -308.3219
  21   2.0000     -11.329346      -308.2872
  22   2.0000     -11.329170      -308.2824
  23   2.0000     -11.326080      -308.1983
  24   2.0000     -11.321503      -308.0738
  25   2.0000      -1.629257       -44.3343
  26   2.0000      -1.447310       -39.3833
  27   2.0000      -1.346285       -36.6343
  28   2.0000      -1.274255       -34.6742
  29   2.0000      -1.257445       -34.2168
  30   2.0000      -1.227951       -33.4142
  31   2.0000      -1.193694       -32.4821
  32   2.0000      -1.154872       -31.4257
  33   2.0000      -1.148411       -31.2498
  34   2.0000      -1.139003       -30.9939
  35   2.0000      -1.127247       -30.6740
  36   2.0000      -1.114264       -30.3207
  37   2.0000      -1.085229       -29.5306
  38   2.0000      -1.058107       -28.7925
  39   2.0000      -1.014474       -27.6053
  40   2.0000      -1.001671       -27.2568
  41   2.0000      -0.974208       -26.5095
  42   2.0000      -0.953761       -25.9531
  43   2.0000      -0.944811       -25.7096
  44   2.0000      -0.930666       -25.3247
  45   2.0000      -0.926884       -25.2218
  46   2.0000      -0.896130       -24.3849
  47   2.0000      -0.879840       -23.9417
  48   2.0000      -0.872673       -23.7466
  49   2.0000      -0.852070       -23.1860
  50   2.0000      -0.829111       -22.5612
  51   2.0000      -0.806538       -21.9470
  52   2.0000      -0.799026       -21.7426
  53   2.0000      -0.789886       -21.4939
  54   2.0000      -0.777554       -21.1583
  55   2.0000      -0.759437       -20.6653
  56   2.0000      -0.753681       -20.5087
  57   2.0000      -0.744526       -20.2596
  58   2.0000      -0.740537       -20.1510
  59   2.0000      -0.734711       -19.9925
  60   2.0000      -0.728212       -19.8156
  61   2.0000      -0.725907       -19.7529
  62   2.0000      -0.715428       -19.4678
  63   2.0000      -0.709267       -19.3001
  64   2.0000      -0.700446       -19.0601
  65   2.0000      -0.688526       -18.7357
  66   2.0000      -0.686688       -18.6857
  67   2.0000      -0.683685       -18.6040
  68   2.0000      -0.674842       -18.3634
  69   2.0000      -0.669254       -18.2113
  70   2.0000      -0.663269       -18.0485
  71   2.0000      -0.654295       -17.8043
  72   2.0000      -0.649785       -17.6815
  73   2.0000      -0.638276       -17.3684
  74   2.0000      -0.631499       -17.1840
  75   2.0000      -0.626191       -17.0395
  76   2.0000      -0.620181       -16.8760
  77   2.0000      -0.615037       -16.7360
  78   2.0000      -0.613307       -16.6889
  79   2.0000      -0.600679       -16.3453
  80   2.0000      -0.592687       -16.1278
  81   2.0000      -0.584563       -15.9068
  82   2.0000      -0.575599       -15.6628
  83   2.0000      -0.574201       -15.6248
  84   2.0000      -0.564367       -15.3572
  85   2.0000      -0.550079       -14.9684
  86   2.0000      -0.464810       -12.6481
  87   2.0000      -0.461140       -12.5482
  88   2.0000      -0.453178       -12.3316
  89   2.0000      -0.438026       -11.9193
  90   2.0000      -0.426567       -11.6075
  91   0.0000      -0.019087        -0.5194
  92   0.0000      -0.009240        -0.2514
  93   0.0000       0.002194         0.0597
  94   0.0000       0.007947         0.2163
  95   0.0000       0.021536         0.5860

MULLIKEN ATOMIC CHARGES
-----------------------
   0 O :   -0.437612
   1 N :   -0.228298
   2 N :   -0.041770
   3 C :    0.146640
   4 C :   -0.240388
   5 C :   -0.170612
   6 C :   -0.178681
   7 C :   -0.156812
   8 C :   -0.154219
   9 C :   -0.274055
  10 C :    0.138057
  11 C :    0.357414
  12 C :    0.266242
  13 C :   -0.124390
  14 C :   -0.270265
  15 C :   -0.209433
  16 C :   -0.431659
  17 C :   -0.276776
  18 C :   -0.224236
  19 C :   -0.094864
  20 C :   -0.192848
  21 C :   -0.076185
  22 C :   -0.095546
  23 C :   -0.153913
  24 C :   -0.165436
  25 H :    0.135438
  26 H :    0.087038
  27 H :    0.134900
  28 H :    0.134662
  29 H :    0.133913
  30 H :    0.115299
  31 H :    0.119433
  32 H :    0.132413
  33 H :    0.118798
  34 H :    0.106864
  35 H :    0.111272
  36 H :    0.134627
  37 H :    0.143067
  38 H :    0.163010
  39 H :    0.172613
  40 H :    0.153950
  41 H :    0.191327
  42 H :    0.168906
  43 H :    0.154709
  44 H :    0.135844
  45 H :    0.140448
  46 H :    0.130557
  47 H :    0.153594
  48 H :    0.149329
  49 H :    0.154357
  50 H :    0.144334
  51 H :    0.132821
  52 H :    0.139031
  53 H :    0.397091
Sum of atomic charges:    1.0000000

LOEWDIN ATOMIC CHARGES
----------------------
   0 O :    0.162875
   1 N :    0.068581
   2 N :    0.311625
   3 C :   -0.177286
   4 C :   -0.206739
   5 C :   -0.203431
   6 C :   -0.249082
   7 C :   -0.250804
   8 C :   -0.250898
   9 C :   -0.193895
  10 C :   -0.164336
  11 C :   -0.192520
  12 C :   -0.138041
  13 C :   -0.210841
  14 C :   -0.106016
  15 C :   -0.086552
  16 C :   -0.275068
  17 C :   -0.107345
  18 C :   -0.118439
  19 C :   -0.117083
  20 C :   -0.117291
  21 C :   -0.103671
  22 C :   -0.128243
  23 C :   -0.153164
  24 C :   -0.148953
  25 H :    0.152209
  26 H :    0.129298
  27 H :    0.138777
  28 H :    0.148386
  29 H :    0.137624
  30 H :    0.122902
  31 H :    0.127355
  32 H :    0.130667
  33 H :    0.122246
  34 H :    0.131464
  35 H :    0.122368
  36 H :    0.135638
  37 H :    0.145595
  38 H :    0.166339
  39 H :    0.166933
  40 H :    0.149829
  41 H :    0.164683
  42 H :    0.137334
  43 H :    0.122120
  44 H :    0.118790
  45 H :    0.147447
  46 H :    0.141485
  47 H :    0.150100
  48 H :    0.148140
  49 H :    0.150395
  50 H :    0.145422
  51 H :    0.137582
  52 H :    0.142302
  53 H :    0.223191

  Mayer bond orders larger than 0.100000
B(  0-O , 11-C ) :   1.2330 B(  0-O , 53-H ) :   0.8257 B(  1-N ,  6-C ) :   0.9095
B(  1-N ,  7-C ) :   0.9145 B(  1-N ,  8-C ) :   0.9464 B(  2-N ,  3-C ) :   0.8262
B(  2-N , 10-C ) :   0.7631 B(  2-N , 11-C ) :   1.5985 B(  3-C ,  4-C ) :   0.9498
B(  3-C ,  5-C ) :   0.9406 B(  3-C , 25-H ) :   0.9668 B(  4-C ,  6-C ) :   0.9988
B(  4-C , 26-H ) :   0.9912 B(  4-C , 27-H ) :   0.9898 B(  5-C ,  7-C ) :   0.9607
B(  5-C , 28-H ) :   0.9717 B(  5-C , 29-H ) :   0.9908 B(  6-C , 30-H ) :   0.9716
B(  6-C , 31-H ) :   1.0035 B(  7-C , 32-H ) :   1.0033 B(  7-C , 33-H ) :   0.9872
B(  8-C ,  9-C ) :   0.9825 B(  8-C , 34-H ) :   0.9883 B(  8-C , 35-H ) :   0.9838
B(  9-C , 12-C ) :   0.8493 B(  9-C , 36-H ) :   1.0230 B(  9-C , 37-H ) :   0.9974
B( 10-C , 14-C ) :   1.4725 B( 10-C , 15-C ) :   1.5068 B( 11-C , 13-C ) :   1.0159
B( 12-C , 17-C ) :   1.4020 B( 12-C , 18-C ) :   1.4148 B( 13-C , 16-C ) :   0.9328
B( 13-C , 38-H ) :   0.9303 B( 13-C , 39-H ) :   0.9507 B( 14-C , 19-C ) :   1.4602
B( 14-C , 40-H ) :   0.9855 B( 15-C , 20-C ) :   1.4914 B( 15-C , 41-H ) :   0.9491
B( 16-C , 42-H ) :   0.9721 B( 16-C , 43-H ) :   0.9871 B( 16-C , 44-H ) :   0.9768
B( 17-C , 22-C ) :   1.4285 B( 17-C , 45-H ) :   0.9882 B( 18-C , 23-C ) :   1.4315
B( 18-C , 46-H ) :   0.9676 B( 19-C , 21-C ) :   1.4091 B( 19-C , 47-H ) :   0.9746
B( 20-C , 21-C ) :   1.4162 B( 20-C , 48-H ) :   0.9767 B( 21-C , 49-H ) :   0.9754
B( 22-C , 24-C ) :   1.4366 B( 22-C , 50-H ) :   0.9853 B( 23-C , 24-C ) :   1.4136
B( 23-C , 51-H ) :   0.9839 B( 24-C , 52-H ) :   0.9834

E(0)                                       ...  -1033.897340485
E(0)                                       ...  -1033.897340485
E(CORR)(strong-pairs)                      ...     -4.256469245
E(CORR)(weak-pairs)                        ...     -0.040197546
E(CORR)(corrected)                         ...     -4.296666790
E(TOT)                                     ...  -1038.194007276
E(CCSD(T))                                 ...  -1038.388534339
FINAL SINGLE POINT ENERGY     -1038.388534338924

DIPOLE MOMENT
-------------
                                X             Y             Z
Electronic contribution:      2.45421      -4.34754       0.22588
Nuclear contribution   :      0.00817       4.63752      -0.71187
                        -----------------------------------------
Total Dipole Moment    :      2.46238       0.28998      -0.48600
                        -----------------------------------------
Magnitude (a.u.)       :      2.52658
Magnitude (Debye)      :      6.42206

Rotational constants in cm-1:     0.008609     0.007529     0.006986
Rotational constants in MHz :   258.101930   225.725973   209.448945

                             ****ORCA TERMINATED NORMALLY****
TOTAL RUN TIME: 0 days 2 hours 35 minutes 5 seconds 128 msec
