                         Program Version 5.0.4 -  RELEASE  -
|  1> ! DLPNO-CCSD(T) def2-TZVP def2-TZVP/C VeryTightSCF
|  2> %maxcore 3400
|  3>
|  4> %pal nprocs 8
|  5> end
|  6>
|  7> *xyz 1 1
|  8> O            -0.554058        -0.996972         1.329225
|  9> N            -2.059784         2.415804        -0.555307
| 10> N             1.146092        -0.155574         0.027092
| 11> C             0.369040         0.997970        -0.526345
| 12> C            -0.807500         0.522731        -1.385639
| 13> C             0.022639         2.003392         0.576934
| 14> C            -1.694333         1.707490        -1.761630
| 15> C            -0.916569         3.076235         0.030213
| 16> C            -3.304660         3.162913        -0.604286
| 17> C            -4.517519         2.217702        -0.581523
| 18> C             2.526323        -0.248817        -0.411801
| 19> C             0.669999        -1.024509         0.875179
| 20> C            -4.334707         1.132369         0.451101
| 21> C             1.481855        -2.136044         1.457542
| 22> C             2.818784        -0.955931        -1.568278
| 23> C             3.508997         0.415387         0.305034
| 24> C             1.942083        -1.775559         2.878391
| 25> C            -4.137369        -0.191158         0.067839
| 26> C            -4.283703         1.444153         1.808532
| 27> C             4.135223        -1.010128        -2.006556
| 28> C             4.822893         0.355846        -0.143034
| 29> C             5.134598        -0.356487        -1.294480
| 30> C            -3.875403        -1.179501         1.011922
| 31> C            -4.018330         0.464707         2.756068
| 32> C            -3.805345        -0.852166         2.360423
| 33> H             1.076588         1.488741        -1.196095
| 34> H            -1.439370        -0.203109        -0.869647
| 35> H            -0.415900         0.027202        -2.278339
| 36> H             0.948527         2.445733         0.955204
| 37> H            -0.479712         1.530309         1.424461
| 38> H            -1.174603         2.364321        -2.481466
| 39> H            -2.589959         1.333044        -2.257573
| 40> H            -1.244536         3.714823         0.851573
| 41> H            -0.382910         3.718422        -0.693003
| 42> H            -3.335403         3.794329         0.286469
| 43> H            -3.366560         3.833153        -1.475263
| 44> H            -4.671132         1.765212        -1.564360
| 45> H            -5.412659         2.809581        -0.371615
| 46> H             2.334557        -2.353110         0.818499
| 47> H             0.831893        -3.012820         1.487980
| 48> H             2.029351        -1.463486        -2.111689
| 49> H             3.251527         0.970796         1.199850
| 50> H             2.478982        -2.622182         3.306051
| 51> H             1.090184        -1.549434         3.521108
| 52> H             2.616210        -0.917327         2.867736
| 53> H            -4.198717        -0.456343        -0.983869
| 54> H            -4.453259         2.467360         2.130366
| 55> H             4.379613        -1.564432        -2.904969
| 56> H             5.602270         0.866958         0.409666
| 57> H             6.160700        -0.401478        -1.639972
| 58> H            -3.740319        -2.208309         0.694486
| 59> H            -3.990177         0.725601         3.808484
| 60> H            -3.609698        -1.620182         3.100335
| 61> H            -1.126048        -0.288937         0.989535
| 62> *
| 63>
| 64>
| 65>                          ****END OF INPUT****

CARTESIAN COORDINATES (ANGSTROEM)
---------------------------------
  O     -0.554058   -0.996972    1.329225
  N     -2.059784    2.415804   -0.555307
  N      1.146092   -0.155574    0.027092
  C      0.369040    0.997970   -0.526345
  C     -0.807500    0.522731   -1.385639
  C      0.022639    2.003392    0.576934
  C     -1.694333    1.707490   -1.761630
  C     -0.916569    3.076235    0.030213
  C     -3.304660    3.162913   -0.604286
  C     -4.517519    2.217702   -0.581523
  C      2.526323   -0.248817   -0.411801
  C      0.669999   -1.024509    0.875179
  C     -4.334707    1.132369    0.451101
  C      1.481855   -2.136044    1.457542
  C      2.818784   -0.955931   -1.568278
  C      3.508997    0.415387    0.305034
  C      1.942083   -1.775559    2.878391
  C     -4.137369   -0.191158    0.067839
  C     -4.283703    1.444153    1.808532
  C      4.135223   -1.010128   -2.006556
  C      4.822893    0.355846   -0.143034
  C      5.134598   -0.356487   -1.294480
  C     -3.875403   -1.179501    1.011922
  C     -4.018330    0.464707    2.756068
  C     -3.805345   -0.852166    2.360423
  H      1.076588    1.488741   -1.196095
  H     -1.439370   -0.203109   -0.869647
  H     -0.415900    0.027202   -2.278339
  H      0.948527    2.445733    0.955204
  H     -0.479712    1.530309    1.424461
  H     -1.174603    2.364321   -2.481466
  H     -2.589959    1.333044   -2.257573
  H     -1.244536    3.714823    0.851573
  H     -0.382910    3.718422   -0.693003
  H     -3.335403    3.794329    0.286469
  H     -3.366560    3.833153   -1.475263
  H     -4.671132    1.765212   -1.564360
  H     -5.412659    2.809581   -0.371615
  H      2.334557   -2.353110    0.818499
  H      0.831893   -3.012820    1.487980
  H      2.029351   -1.463486   -2.111689
  H      3.251527    0.970796    1.199850
  H      2.478982   -2.622182    3.306051
  H      1.090184   -1.549434    3.521108
  H      2.616210   -0.917327    2.867736
  H     -4.198717   -0.456343   -0.983869
  H     -4.453259    2.467360    2.130366
  H      4.379613   -1.564432   -2.904969
  H      5.602270    0.866958    0.409666
  H      6.160700   -0.401478   -1.639972
  H     -3.740319   -2.208309    0.694486
  H     -3.990177    0.725601    3.808484
  H     -3.609698   -1.620182    3.100335
  H     -1.126048   -0.288937    0.989535

 Total Charge           Charge          ....    1
 Multiplicity           Mult            ....    1
 Number of Electrons    NEL             ....  182
 Basis Dimension        Dim             ....  949

ORBITAL ENERGIES
----------------

  NO   OCC          E(Eh)            E(eV)
   0   2.0000     -20.775558      -565.3317
   1   2.0000     -15.782537      -429.4647
   2   2.0000     -15.648183      -425.8087
   3   2.0000     -11.547926      -314.2351
   4   2.0000     -11.418681      -310.7181
   5   2.0000     -11.413793      -310.5851
   6   2.0000     -11.382274      -309.7274
   7   2.0000     -11.368018      -309.3395
   8   2.0000     -11.367429      -309.3235
   9   2.0000     -11.362840      -309.1986
  10   2.0000     -11.362716      -309.1952
  11   2.0000     -11.360090      -309.1238
  12   2.0000     -11.359879      -309.1180
  13   2.0000     -11.356009      -309.0127
  14   2.0000     -11.354783      -308.9794
  15   2.0000     -11.354770      -308.9790
  16   2.0000     -11.351703      -308.8956
  17   2.0000     -11.348431      -308.8065
  18   2.0000     -11.327453      -308.2357
  19   2.0000     -11.323119      -308.1177
  20   2.0000     -11.321443      -308.0721
  21   2.0000     -11.318290      -307.9863
  22   2.0000     -11.317720      -307.9708
  23   2.0000     -11.316894      -307.9483
  24   2.0000     -11.316039      -307.9251
  25   2.0000      -1.621917       -44.1346
  26   2.0000      -1.453930       -39.5634
  27   2.0000      -1.353994       -36.8441
  28   2.0000      -1.284327       -34.9483
  29   2.0000      -1.247441       -33.9446
  30   2.0000      -1.233178       -33.5565
  31   2.0000      -1.192746       -32.4563
  32   2.0000      -1.153543       -31.3895
  33   2.0000      -1.151330       -31.3293
  34   2.0000      -1.149295       -31.2739
  35   2.0000      -1.144927       -31.1551
  36   2.0000      -1.103784       -30.0355
  37   2.0000      -1.083961       -29.4961
  38   2.0000      -1.053495       -28.6670
  39   2.0000      -1.012688       -27.5566
  40   2.0000      -0.994367       -27.0581
  41   2.0000      -0.988847       -26.9079
  42   2.0000      -0.967015       -26.3138
  43   2.0000      -0.965188       -26.2641
  44   2.0000      -0.944305       -25.6958
  45   2.0000      -0.916440       -24.9376
  46   2.0000      -0.904098       -24.6017
  47   2.0000      -0.879505       -23.9326
  48   2.0000      -0.865924       -23.5630
  49   2.0000      -0.847942       -23.0737
  50   2.0000      -0.815063       -22.1790
  51   2.0000      -0.807615       -21.9763
  52   2.0000      -0.788972       -21.4690
  53   2.0000      -0.777123       -21.1466
  54   2.0000      -0.771773       -21.0010
  55   2.0000      -0.766549       -20.8589
  56   2.0000      -0.754841       -20.5403
  57   2.0000      -0.747728       -20.3467
  58   2.0000      -0.746637       -20.3170
  59   2.0000      -0.739749       -20.1296
  60   2.0000      -0.735923       -20.0255
  61   2.0000      -0.729092       -19.8396
  62   2.0000      -0.721494       -19.6328
  63   2.0000      -0.718872       -19.5615
  64   2.0000      -0.714606       -19.4454
  65   2.0000      -0.692384       -18.8407
  66   2.0000      -0.684820       -18.6349
  67   2.0000      -0.674339       -18.3497
  68   2.0000      -0.670805       -18.2535
  69   2.0000      -0.662150       -18.0180
  70   2.0000      -0.656645       -17.8682
  71   2.0000      -0.651624       -17.7316
  72   2.0000      -0.642543       -17.4845
  73   2.0000      -0.641198       -17.4479
  74   2.0000      -0.638613       -17.3775
  75   2.0000      -0.633874       -17.2486
  76   2.0000      -0.628843       -17.1117
  77   2.0000      -0.622773       -16.9465
  78   2.0000      -0.618300       -16.8248
  79   2.0000      -0.608128       -16.5480
  80   2.0000      -0.588891       -16.0246
  81   2.0000      -0.587021       -15.9736
  82   2.0000      -0.575847       -15.6696
  83   2.0000      -0.570097       -15.5131
  84   2.0000      -0.568928       -15.4813
  85   2.0000      -0.561500       -15.2792
  86   2.0000      -0.470629       -12.8065
  87   2.0000      -0.468902       -12.7595
  88   2.0000      -0.458549       -12.4778
  89   2.0000      -0.428764       -11.6673
  90   2.0000      -0.415676       -11.3111
  91   0.0000      -0.023077        -0.6280
  92   0.0000      -0.008481        -0.2308
  93   0.0000       0.001675         0.0456
  94   0.0000       0.015024         0.4088
  95   0.0000       0.028863         0.7854

MULLIKEN ATOMIC CHARGES
-----------------------
   0 O :   -0.401994
   1 N :   -0.187951
   2 N :   -0.008397
   3 C :   -0.112932
   4 C :   -0.220408
   5 C :   -0.183840
   6 C :   -0.124604
   7 C :   -0.146465
   8 C :   -0.151685
   9 C :   -0.237498
  10 C :    0.154721
  11 C :    0.439610
  12 C :    0.348507
  13 C :   -0.136099
  14 C :   -0.282573
  15 C :   -0.305084
  16 C :   -0.377026
  17 C :   -0.305547
  18 C :   -0.342622
  19 C :   -0.057878
  20 C :   -0.064907
  21 C :   -0.107832
  22 C :   -0.126741
  23 C :   -0.054773
  24 C :   -0.183311
  25 H :    0.146964
  26 H :    0.113377
  27 H :    0.131333
  28 H :    0.125890
  29 H :    0.109584
  30 H :    0.114862
  31 H :    0.124053
  32 H :    0.127920
  33 H :    0.108870
  34 H :    0.109312
  35 H :    0.112496
  36 H :    0.121295
  37 H :    0.142441
  38 H :    0.161523
  39 H :    0.150860
  40 H :    0.152359
  41 H :    0.158653
  42 H :    0.155285
  43 H :    0.146915
  44 H :    0.118492
  45 H :    0.131180
  46 H :    0.132319
  47 H :    0.158371
  48 H :    0.157786
  49 H :    0.159893
  50 H :    0.134394
  51 H :    0.141633
  52 H :    0.136232
  53 H :    0.393042
Sum of atomic charges:    1.0000000

LOEWDIN ATOMIC CHARGES
----------------------
   0 O :    0.182931
   1 N :    0.079468
   2 N :    0.298282
   3 C :   -0.194705
   4 C :   -0.216665
   5 C :   -0.216305
   6 C :   -0.244277
   7 C :   -0.248259
   8 C :   -0.244636
   9 C :   -0.192856
  10 C :   -0.164626
  11 C :   -0.194178
  12 C :   -0.134809
  13 C :   -0.195080
  14 C :   -0.102422
  15 C :   -0.103066
  16 C :   -0.249720
  17 C :   -0.128058
  18 C :   -0.106712
  19 C :   -0.103558
  20 C :   -0.104133
  21 C :   -0.100930
  22 C :   -0.148786
  23 C :   -0.132990
  24 C :   -0.148757
  25 H :    0.166825
  26 H :    0.129324
  27 H :    0.136217
  28 H :    0.135345
  29 H :    0.131635
  30 H :    0.122855
  31 H :    0.135351
  32 H :    0.134562
  33 H :    0.121828
  34 H :    0.129076
  35 H :    0.121095
  36 H :    0.133364
  37 H :    0.143680
  38 H :    0.154935
  39 H :    0.157911
  40 H :    0.150816
  41 H :    0.149076
  42 H :    0.129970
  43 H :    0.124360
  44 H :    0.116823
  45 H :    0.141814
  46 H :    0.145684
  47 H :    0.152475
  48 H :    0.152300
  49 H :    0.152571
  50 H :    0.141972
  51 H :    0.144250
  52 H :    0.142216
  53 H :    0.216512

  Mayer bond orders larger than 0.100000
B(  0-O , 11-C ) :   1.2841 B(  0-O , 53-H ) :   0.8026 B(  1-N ,  6-C ) :   0.9123
B(  1-N ,  7-C ) :   0.9428 B(  1-N ,  8-C ) :   0.9328 B(  2-N ,  3-C ) :   0.7573
B(  2-N , 10-C ) :   0.6929 B(  2-N , 11-C ) :   1.5659 B(  3-C ,  4-C ) :   1.0049
B(  3-C ,  5-C ) :   1.0262 B(  3-C , 25-H ) :   0.9596 B(  4-C ,  6-C ) :   0.9842
B(  4-C , 26-H ) :   0.9874 B(  4-C , 27-H ) :   0.9829 B(  5-C ,  7-C ) :   0.9973
B(  5-C , 28-H ) :   0.9821 B(  5-C , 29-H ) :   0.9723 B(  6-C , 30-H ) :   0.9789
B(  6-C , 31-H ) :   0.9900 B(  7-C , 32-H ) :   0.9861 B(  7-C , 33-H ) :   0.9846
B(  8-C ,  9-C ) :   0.9731 B(  8-C , 34-H ) :   0.9955 B(  8-C , 35-H ) :   0.9812
B(  9-C , 12-C ) :   0.8615 B(  9-C , 36-H ) :   1.0190 B(  9-C , 37-H ) :   0.9950
B( 10-C , 14-C ) :   1.4799 B( 10-C , 15-C ) :   1.4578 B( 11-C , 13-C ) :   0.9537
B( 12-C , 17-C ) :   1.3854 B( 12-C , 18-C ) :   1.3840 B( 13-C , 16-C ) :   0.9444
B( 13-C , 38-H ) :   0.9745 B( 13-C , 39-H ) :   0.9570 B( 14-C , 19-C ) :   1.4767
B( 14-C , 40-H ) :   0.9747 B( 15-C , 20-C ) :   1.4786 B( 15-C , 41-H ) :   0.9724
B( 16-C , 42-H ) :   0.9789 B( 16-C , 43-H ) :   0.9826 B( 16-C , 44-H ) :   0.9743
B( 17-C , 22-C ) :   1.4223 B( 17-C , 45-H ) :   0.9868 B( 18-C , 23-C ) :   1.4547
B( 18-C , 46-H ) :   0.9849 B( 19-C , 21-C ) :   1.4199 B( 19-C , 47-H ) :   0.9688
B( 20-C , 21-C ) :   1.4281 B( 20-C , 48-H ) :   0.9681 B( 21-C , 49-H ) :   0.9691
B( 22-C , 24-C ) :   1.4170 B( 22-C , 50-H ) :   0.9979 B( 23-C , 24-C ) :   1.3970
B( 23-C , 51-H ) :   0.9836 B( 24-C , 52-H ) :   0.9879

E(0)                                       ...  -1033.911150635
E(0)                                       ...  -1033.911150635
E(CORR)(strong-pairs)                      ...     -4.245621630
E(CORR)(weak-pairs)                        ...     -0.035359397
E(CORR)(corrected)                         ...     -4.280981028
E(TOT)                                     ...  -1038.192131662
E(CCSD(T))                                 ...  -1038.385321999
FINAL SINGLE POINT ENERGY     -1038.385321999210

DIPOLE MOMENT
-------------
                                X             Y             Z
Electronic contribution:      3.62754      -4.69042      -0.99180
Nuclear contribution   :     -1.25036       4.21799       0.75278
                        -----------------------------------------
Total Dipole Moment    :      2.37718      -0.47243      -0.23902
                        -----------------------------------------
Magnitude (a.u.)       :      2.43542
Magnitude (Debye)      :      6.19035

Rotational constants in cm-1:     0.013708     0.004599     0.003943
Rotational constants in MHz :   410.960115   137.876900   118.210541

                             ****ORCA TERMINATED NORMALLY****
TOTAL RUN TIME: 0 days 1 hours 25 minutes 50 seconds 912 msec
