                         Program Version 5.0.4 -  RELEASE  -
|  1> ! DLPNO-CCSD(T) def2-TZVP def2-TZVP/C VeryTightSCF
|  2> %maxcore 3400
|  3>
|  4> %pal nprocs 8
|  5> end
|  6>
|  7> *xyz 1 1
|  8> O             3.429640         2.292988         0.350179
|  9> N            -1.874803         1.980031         0.045993
| 10> N             2.080014         0.597489        -0.155206
| 11> C             0.917000         1.546948        -0.242556
| 12> C            -0.073705         1.093192        -1.306719
| 13> C             0.261035         1.683618         1.129777
| 14> C            -1.297460         2.006715        -1.277894
| 15> C            -0.987086         2.559570         1.024572
| 16> C            -3.278077         2.335393         0.138283
| 17> C            -4.173136         1.246079        -0.476965
| 18> C             1.840075        -0.820883        -0.342863
| 19> C             3.272021         1.005431         0.149566
| 20> C            -3.736198        -0.131767        -0.041050
| 21> C             4.442559         0.070772         0.278803
| 22> C             1.416834        -1.586878         0.732121
| 23> C             2.007835        -1.371683        -1.604793
| 24> C             5.754178         0.753661         0.654652
| 25> C            -3.119254        -1.001658        -0.935034
| 26> C            -3.879823        -0.535785         1.284757
| 27> C             1.152037        -2.936080         0.534257
| 28> C             1.746498        -2.721737        -1.791106
| 29> C             1.316488        -3.501605        -0.723211
| 30> C            -2.634252        -2.235198        -0.515760
| 31> C            -3.401019        -1.767254         1.710314
| 32> C            -2.768041        -2.619494         0.811650
| 33> H             1.338305         2.508498        -0.538690
| 34> H            -0.415971         0.078266        -1.098659
| 35> H             0.395694         1.109314        -2.294484
| 36> H             0.972473         2.106248         1.845307
| 37> H            -0.054481         0.698684         1.481162
| 38> H            -1.022952         3.032260        -1.588361
| 39> H            -2.023482         1.637955        -2.002044
| 40> H            -1.486840         2.584735         1.994541
| 41> H            -0.699855         3.598652         0.775958
| 42> H            -3.516269         2.424105         1.201069
| 43> H            -3.505303         3.309774        -0.323944
| 44> H            -4.157290         1.307228        -1.568039
| 45> H            -5.205814         1.440168        -0.173890
| 46> H             4.536281        -0.465451        -0.668749
| 47> H             4.168370        -0.687936         1.016326
| 48> H             1.289969        -1.137877         1.709810
| 49> H             2.326773        -0.748386        -2.432843
| 50> H             6.541736         0.004105         0.726126
| 51> H             5.698583         1.245868         1.630308
| 52> H             6.076588         1.475206        -0.102464
| 53> H            -3.018111        -0.712353        -1.977129
| 54> H            -4.373944         0.121101         1.994694
| 55> H             0.812266        -3.541783         1.365678
| 56> H             1.872561        -3.162761        -2.772826
| 57> H             1.107695        -4.554361        -0.873668
| 58> H            -2.160198        -2.900129        -1.230386
| 59> H            -3.531238        -2.068231         2.744347
| 60> H            -2.403497        -3.586513         1.141222
| 61> H             4.353270         2.497769         0.554168
| 62> *
| 63>
| 64>
| 65>                          ****END OF INPUT****

CARTESIAN COORDINATES (ANGSTROEM)
---------------------------------
  O      3.429640    2.292988    0.350179
  N     -1.874803    1.980031    0.045993
  N      2.080014    0.597489   -0.155206
  C      0.917000    1.546948   -0.242556
  C     -0.073705    1.093192   -1.306719
  C      0.261035    1.683618    1.129777
  C     -1.297460    2.006715   -1.277894
  C     -0.987086    2.559570    1.024572
  C     -3.278077    2.335393    0.138283
  C     -4.173136    1.246079   -0.476965
  C      1.840075   -0.820883   -0.342863
  C      3.272021    1.005431    0.149566
  C     -3.736198   -0.131767   -0.041050
  C      4.442559    0.070772    0.278803
  C      1.416834   -1.586878    0.732121
  C      2.007835   -1.371683   -1.604793
  C      5.754178    0.753661    0.654652
  C     -3.119254   -1.001658   -0.935034
  C     -3.879823   -0.535785    1.284757
  C      1.152037   -2.936080    0.534257
  C      1.746498   -2.721737   -1.791106
  C      1.316488   -3.501605   -0.723211
  C     -2.634252   -2.235198   -0.515760
  C     -3.401019   -1.767254    1.710314
  C     -2.768041   -2.619494    0.811650
  H      1.338305    2.508498   -0.538690
  H     -0.415971    0.078266   -1.098659
  H      0.395694    1.109314   -2.294484
  H      0.972473    2.106248    1.845307
  H     -0.054481    0.698684    1.481162
  H     -1.022952    3.032260   -1.588361
  H     -2.023482    1.637955   -2.002044
  H     -1.486840    2.584735    1.994541
  H     -0.699855    3.598652    0.775958
  H     -3.516269    2.424105    1.201069
  H     -3.505303    3.309774   -0.323944
  H     -4.157290    1.307228   -1.568039
  H     -5.205814    1.440168   -0.173890
  H      4.536281   -0.465451   -0.668749
  H      4.168370   -0.687936    1.016326
  H      1.289969   -1.137877    1.709810
  H      2.326773   -0.748386   -2.432843
  H      6.541736    0.004105    0.726126
  H      5.698583    1.245868    1.630308
  H      6.076588    1.475206   -0.102464
  H     -3.018111   -0.712353   -1.977129
  H     -4.373944    0.121101    1.994694
  H      0.812266   -3.541783    1.365678
  H      1.872561   -3.162761   -2.772826
  H      1.107695   -4.554361   -0.873668
  H     -2.160198   -2.900129   -1.230386
  H     -3.531238   -2.068231    2.744347
  H     -2.403497   -3.586513    1.141222
  H      4.353270    2.497769    0.554168

 Total Charge           Charge          ....    1
 Multiplicity           Mult            ....    1
 Number of Electrons    NEL             ....  182
 Basis Dimension        Dim             ....  949

ORBITAL ENERGIES
----------------

  NO   OCC          E(Eh)            E(eV)
   0   2.0000     -20.790265      -565.7319
   1   2.0000     -15.781329      -429.4318
   2   2.0000     -15.630841      -425.3368
   3   2.0000     -11.554516      -314.4144
   4   2.0000     -11.410050      -310.4832
   5   2.0000     -11.405278      -310.3534
   6   2.0000     -11.403288      -310.2992
   7   2.0000     -11.374886      -309.5264
   8   2.0000     -11.365419      -309.2688
   9   2.0000     -11.364891      -309.2544
  10   2.0000     -11.357417      -309.0510
  11   2.0000     -11.356364      -309.0224
  12   2.0000     -11.354096      -308.9606
  13   2.0000     -11.348114      -308.7979
  14   2.0000     -11.346726      -308.7601
  15   2.0000     -11.335889      -308.4652
  16   2.0000     -11.334277      -308.4213
  17   2.0000     -11.332043      -308.3606
  18   2.0000     -11.310394      -307.7715
  19   2.0000     -11.305784      -307.6460
  20   2.0000     -11.304757      -307.6181
  21   2.0000     -11.303057      -307.5718
  22   2.0000     -11.301371      -307.5259
  23   2.0000     -11.300464      -307.5012
  24   2.0000     -11.299177      -307.4662
  25   2.0000      -1.635677       -44.5090
  26   2.0000      -1.456006       -39.6199
  27   2.0000      -1.338036       -36.4098
  28   2.0000      -1.282352       -34.8946
  29   2.0000      -1.235404       -33.6171
  30   2.0000      -1.228675       -33.4340
  31   2.0000      -1.193565       -32.4785
  32   2.0000      -1.155715       -31.4486
  33   2.0000      -1.148502       -31.2523
  34   2.0000      -1.135372       -30.8950
  35   2.0000      -1.128231       -30.7007
  36   2.0000      -1.086529       -29.5660
  37   2.0000      -1.077539       -29.3213
  38   2.0000      -1.050461       -28.5845
  39   2.0000      -1.020203       -27.7611
  40   2.0000      -0.991524       -26.9807
  41   2.0000      -0.973558       -26.4919
  42   2.0000      -0.958518       -26.0826
  43   2.0000      -0.940555       -25.5938
  44   2.0000      -0.929892       -25.3037
  45   2.0000      -0.899762       -24.4838
  46   2.0000      -0.892739       -24.2927
  47   2.0000      -0.875509       -23.8238
  48   2.0000      -0.871009       -23.7014
  49   2.0000      -0.856240       -23.2995
  50   2.0000      -0.830538       -22.6001
  51   2.0000      -0.823075       -22.3970
  52   2.0000      -0.791553       -21.5392
  53   2.0000      -0.773202       -21.0399
  54   2.0000      -0.769459       -20.9380
  55   2.0000      -0.758181       -20.6312
  56   2.0000      -0.753273       -20.4976
  57   2.0000      -0.738365       -20.0919
  58   2.0000      -0.734923       -19.9983
  59   2.0000      -0.729662       -19.8551
  60   2.0000      -0.722476       -19.6596
  61   2.0000      -0.718961       -19.5639
  62   2.0000      -0.714950       -19.4548
  63   2.0000      -0.705537       -19.1986
  64   2.0000      -0.698714       -19.0130
  65   2.0000      -0.695720       -18.9315
  66   2.0000      -0.680075       -18.5058
  67   2.0000      -0.673888       -18.3374
  68   2.0000      -0.668945       -18.2029
  69   2.0000      -0.665835       -18.1183
  70   2.0000      -0.656339       -17.8599
  71   2.0000      -0.652040       -17.7429
  72   2.0000      -0.643092       -17.4994
  73   2.0000      -0.637554       -17.3487
  74   2.0000      -0.631808       -17.1924
  75   2.0000      -0.626390       -17.0449
  76   2.0000      -0.622413       -16.9367
  77   2.0000      -0.607897       -16.5417
  78   2.0000      -0.600066       -16.3286
  79   2.0000      -0.595045       -16.1920
  80   2.0000      -0.576581       -15.6896
  81   2.0000      -0.572535       -15.5795
  82   2.0000      -0.559031       -15.2120
  83   2.0000      -0.555884       -15.1264
  84   2.0000      -0.553820       -15.0702
  85   2.0000      -0.547947       -14.9104
  86   2.0000      -0.469012       -12.7625
  87   2.0000      -0.465533       -12.6678
  88   2.0000      -0.441042       -12.0014
  89   2.0000      -0.409858       -11.1528
  90   2.0000      -0.398359       -10.8399
  91   0.0000      -0.020539        -0.5589
  92   0.0000      -0.018803        -0.5116
  93   0.0000      -0.004037        -0.1098
  94   0.0000       0.001399         0.0381
  95   0.0000       0.023745         0.6461

MULLIKEN ATOMIC CHARGES
-----------------------
   0 O :   -0.434570
   1 N :   -0.184016
   2 N :   -0.043855
   3 C :    0.053058
   4 C :   -0.173179
   5 C :   -0.174007
   6 C :   -0.126704
   7 C :   -0.166368
   8 C :   -0.142900
   9 C :   -0.233354
  10 C :    0.175615
  11 C :    0.381731
  12 C :    0.337605
  13 C :   -0.140453
  14 C :   -0.274783
  15 C :   -0.300303
  16 C :   -0.431826
  17 C :   -0.296445
  18 C :   -0.329749
  19 C :   -0.060626
  20 C :   -0.059099
  21 C :   -0.123116
  22 C :   -0.065498
  23 C :   -0.069651
  24 C :   -0.194598
  25 H :    0.122008
  26 H :    0.126383
  27 H :    0.111871
  28 H :    0.116199
  29 H :    0.089792
  30 H :    0.100970
  31 H :    0.115666
  32 H :    0.119028
  33 H :    0.094973
  34 H :    0.104618
  35 H :    0.102110
  36 H :    0.119929
  37 H :    0.136636
  38 H :    0.167518
  39 H :    0.169381
  40 H :    0.162511
  41 H :    0.156598
  42 H :    0.171241
  43 H :    0.149744
  44 H :    0.146694
  45 H :    0.122260
  46 H :    0.127363
  47 H :    0.151995
  48 H :    0.157004
  49 H :    0.157677
  50 H :    0.121931
  51 H :    0.134357
  52 H :    0.122104
  53 H :    0.398531
Sum of atomic charges:    1.0000000

LOEWDIN ATOMIC CHARGES
----------------------
   0 O :    0.159115
   1 N :    0.082644
   2 N :    0.308501
   3 C :   -0.188160
   4 C :   -0.208418
   5 C :   -0.210454
   6 C :   -0.244171
   7 C :   -0.249468
   8 C :   -0.247120
   9 C :   -0.194821
  10 C :   -0.161612
  11 C :   -0.192292
  12 C :   -0.132171
  13 C :   -0.209604
  14 C :   -0.098495
  15 C :   -0.102555
  16 C :   -0.274341
  17 C :   -0.119995
  18 C :   -0.108199
  19 C :   -0.103153
  20 C :   -0.109002
  21 C :   -0.102273
  22 C :   -0.139060
  23 C :   -0.133179
  24 C :   -0.149126
  25 H :    0.156052
  26 H :    0.148020
  27 H :    0.132125
  28 H :    0.130452
  29 H :    0.140184
  30 H :    0.118931
  31 H :    0.133335
  32 H :    0.132831
  33 H :    0.118172
  34 H :    0.128318
  35 H :    0.118210
  36 H :    0.132335
  37 H :    0.141897
  38 H :    0.165818
  39 H :    0.166885
  40 H :    0.150857
  41 H :    0.150565
  42 H :    0.138168
  43 H :    0.122233
  44 H :    0.121680
  45 H :    0.139694
  46 H :    0.143727
  47 H :    0.151479
  48 H :    0.151514
  49 H :    0.151817
  50 H :    0.138585
  51 H :    0.141684
  52 H :    0.137233
  53 H :    0.224607

  Mayer bond orders larger than 0.100000
B(  0-O , 11-C ) :   1.2440 B(  0-O , 53-H ) :   0.8251 B(  1-N ,  6-C ) :   0.9280
B(  1-N ,  7-C ) :   0.9659 B(  1-N ,  8-C ) :   0.9399 B(  2-N ,  3-C ) :   0.7932
B(  2-N , 10-C ) :   0.7102 B(  2-N , 11-C ) :   1.6170 B(  3-C ,  4-C ) :   1.0002
B(  3-C ,  5-C ) :   1.0021 B(  3-C , 25-H ) :   0.9646 B(  4-C ,  6-C ) :   0.9989
B(  4-C , 26-H ) :   0.9521 B(  4-C , 27-H ) :   0.9810 B(  5-C ,  7-C ) :   1.0260
B(  5-C , 28-H ) :   0.9797 B(  5-C , 29-H ) :   0.9600 B(  6-C , 30-H ) :   0.9836
B(  6-C , 31-H ) :   0.9887 B(  7-C , 32-H ) :   0.9836 B(  7-C , 33-H ) :   0.9864
B(  8-C ,  9-C ) :   0.9755 B(  8-C , 34-H ) :   0.9932 B(  8-C , 35-H ) :   0.9810
B(  9-C , 12-C ) :   0.8542 B(  9-C , 36-H ) :   1.0191 B(  9-C , 37-H ) :   0.9981
B( 10-C , 14-C ) :   1.4721 B( 10-C , 15-C ) :   1.4471 B( 11-C , 13-C ) :   1.0228
B( 12-C , 17-C ) :   1.4057 B( 12-C , 18-C ) :   1.3885 B( 13-C , 16-C ) :   0.9391
B( 13-C , 38-H ) :   0.9392 B( 13-C , 39-H ) :   0.9449 B( 14-C , 19-C ) :   1.4689
B( 14-C , 40-H ) :   0.9729 B( 15-C , 20-C ) :   1.4772 B( 15-C , 41-H ) :   0.9801
B( 16-C , 42-H ) :   0.9708 B( 16-C , 43-H ) :   0.9813 B( 16-C , 44-H ) :   0.9800
B( 17-C , 22-C ) :   1.4368 B( 17-C , 45-H ) :   0.9794 B( 18-C , 23-C ) :   1.4669
B( 18-C , 46-H ) :   0.9822 B( 19-C , 21-C ) :   1.4238 B( 19-C , 47-H ) :   0.9716
B( 20-C , 21-C ) :   1.4112 B( 20-C , 48-H ) :   0.9701 B( 21-C , 49-H ) :   0.9745
B( 22-C , 24-C ) :   1.4334 B( 22-C , 50-H ) :   0.9829 B( 23-C , 24-C ) :   1.4147
B( 23-C , 51-H ) :   0.9804 B( 24-C , 52-H ) :   0.9842

E(0)                                       ...  -1033.910583869
E(0)                                       ...  -1033.910583869
E(CORR)(strong-pairs)                      ...     -4.247265484
E(CORR)(weak-pairs)                        ...     -0.035029488
E(CORR)(corrected)                         ...     -4.282294973
E(TOT)                                     ...  -1038.192878842
E(CCSD(T))                                 ...  -1038.386146414
FINAL SINGLE POINT ENERGY     -1038.386146414418

DIPOLE MOMENT
-------------
                                X             Y             Z
Electronic contribution:      0.92009      -6.59437      -0.78449
Nuclear contribution   :      3.80770       7.41392       0.91823
                        -----------------------------------------
Total Dipole Moment    :      4.72779       0.81954       0.13374
                        -----------------------------------------
Magnitude (a.u.)       :      4.80016
Magnitude (Debye)      :     12.20104

Rotational constants in cm-1:     0.011190     0.005555     0.004293
Rotational constants in MHz :   335.469097   166.549646   128.711256

                             ****ORCA TERMINATED NORMALLY****
TOTAL RUN TIME: 0 days 1 hours 51 minutes 19 seconds 774 msec
