                         Program Version 5.0.4 -  RELEASE  -
|  1> ! wB97X-D3BJ TightOpt Freq def2-TZVP def2/J RIJCOSX TightSCF defgrid3 CHELPG
|  2> %maxcore 3400
|  3>
|  4> %pal nprocs 8
|  5> end
|  6>
|  7> %chelpg
|  8> grid 0.1
|  9> rmax 3.0
| 10> end
| 11>
| 12> *xyz 1 1
| 13> O         2.4188092053     1.9276066845     1.1609773199
| 14> N        -1.8929724007    -0.4256616535    -1.0859800734
| 15> N         2.1631921053     0.0533077101    -0.0440346629
| 16> C         0.7160228024     0.2848294543    -0.1736600684
| 17> C         0.3061762301     0.4260416441    -1.6382045671
| 18> C        -0.0860754905    -0.8470825602     0.4652238893
| 19> C        -1.2018412115     0.6847278432    -1.6984311221
| 20> C        -1.5764318072    -0.5246197761     0.3204158782
| 21> C        -3.2900042175    -0.5575908931    -1.4422183180
| 22> C        -4.2087602994     0.6503112068    -1.1617120498
| 23> C         2.7087703652    -1.1221947143    -0.6668884294
| 24> C         2.9413107260     0.8642506664     0.6053332964
| 25> C        -4.2992989268     1.0063886770     0.2944324563
| 26> C         4.4087537924     0.5918249547     0.7174774503
| 27> C         2.7707283448    -2.3118532619     0.0454726991
| 28> C         3.1611333272    -1.0571276641    -1.9776227243
| 29> C         5.1725857152     1.6390527438     1.5234862977
| 30> C        -3.8077535787     2.2172867114     0.7665976071
| 31> C        -4.8784006746     0.1244476563     1.2002747290
| 32> C         3.2762612347    -3.4458204186    -0.5678648231
| 33> C         3.6644395441    -2.1974136273    -2.5807264195
| 34> C         3.7199443998    -3.3903067463    -1.8788310629
| 35> C        -3.8767874929     2.5339282482     2.1122626267
| 36> C        -4.9458515538     0.4366640651     2.5457029402
| 37> C        -4.4404218416     1.6408121066     3.0069030900
| 38> H         0.4956486164     1.2179530575     0.3519798613
| 39> H         0.5220434972    -0.4975922679    -2.1751350331
| 40> H         0.8409144806     1.2522285228    -2.1096250266
| 41> H         0.1661299142    -0.9489585698     1.5217454162
| 42> H         0.1198737659    -1.7855507822    -0.0494512663
| 43> H        -1.4205427218     1.6450107525    -1.2003082465
| 44> H        -1.5118506915     0.7579201912    -2.7420098853
| 45> H        -2.1640289101    -1.3323730194     0.7581377462
| 46> H        -1.8020377306     0.4001500656     0.8763918797
| 47> H        -3.3246100447    -0.7690511844    -2.5156709742
| 48> H        -3.6725391109    -1.4345577973    -0.9164960252
| 49> H        -5.2027360269     0.3867732184    -1.5299163144
| 50> H        -3.8609445354     1.5123196289    -1.7337106553
| 51> H         4.8238942659     0.5229452080    -0.2922328796
| 52> H         4.5419290745    -0.3959625772     1.1679363576
| 53> H         2.4238021555    -2.3515702522     1.0664338510
| 54> H         3.1156621225    -0.1262028921    -2.5213934725
| 55> H         4.8234601117     1.6887342173     2.5541495428
| 56> H         5.1171527824     2.6240723214     1.0615814973
| 57> H         6.2224241042     1.3615070046     1.5559044033
| 58> H        -3.3746203030     2.9252897140     0.0722418352
| 59> H        -5.2885922977    -0.8100524391     0.8452041183
| 60> H         3.3195911893    -4.3727641736    -0.0185283922
| 61> H         4.0103172162    -2.1508402451    -3.6010522826
| 62> H         4.1094205758    -4.2766560834    -2.3534706748
| 63> H        -3.4953718863     3.4825413346     2.4614223265
| 64> H        -5.4012255077    -0.2575215661     3.2361601869
| 65> H        -4.4965414432     1.8869291837     4.0564444796
| 66> H         3.0849226530     2.4666820277     1.6233764755
| 67> *
| 68>
| 69>
| 70>                          ****END OF INPUT****
 Total Charge           Charge          ....    1
 Multiplicity           Mult            ....    1
 Number of Electrons    NEL             ....  182
Dispersion correction           -0.124425025
FINAL SINGLE POINT ENERGY     -1041.206267573130
Dispersion correction            ... done
Dispersion correction           -0.123161541
FINAL SINGLE POINT ENERGY     -1041.208281576102
Dispersion correction            ... done
Dispersion correction           -0.123596049
FINAL SINGLE POINT ENERGY     -1041.208676325347
Dispersion correction            ... done
FINAL SINGLE POINT ENERGY     -1041.208770188926
FINAL SINGLE POINT ENERGY     -1041.208784528011
FINAL SINGLE POINT ENERGY     -1041.208787463293
Dispersion correction           -0.123699249
FINAL SINGLE POINT ENERGY     -1041.208788105333
Dispersion correction            ... done
Dispersion correction           -0.123698920
FINAL SINGLE POINT ENERGY     -1041.208787941890
Dispersion correction            ... done
                    ***********************HURRAY********************

CARTESIAN COORDINATES (ANGSTROEM)
---------------------------------
  O      2.320567    1.841102    1.219315
  N     -1.957398   -0.485124   -1.097046
  N      2.122526    0.005523   -0.035027
  C      0.642814    0.213218   -0.164734
  C      0.245059    0.424682   -1.620430
  C     -0.131228   -0.948084    0.445927
  C     -1.266741    0.640923   -1.689842
  C     -1.625190   -0.656301    0.307479
  C     -3.369430   -0.584357   -1.447366
  C     -4.257166    0.642677   -1.174459
  C      2.718383   -1.145788   -0.686258
  C      2.886112    0.809185    0.638699
  C     -4.292166    1.059548    0.275265
  C      4.369510    0.595588    0.769566
  C      2.815245   -2.342109    0.008672
  C      3.180468   -1.024217   -1.988174
  C      5.087533    1.656355    1.598676
  C     -3.757676    2.277884    0.683924
  C     -4.828167    0.210958    1.243113
  C      3.388215   -3.440929   -0.617634
  C      3.752004   -2.128519   -2.606307
  C      3.854963   -3.333891   -1.922292
  C     -3.732209    2.632822    2.028069
  C     -4.803881    0.557954    2.586307
  C     -4.247290    1.768769    2.985019
  H      0.417460    1.117874    0.397526
  H      0.501199   -0.457796   -2.210458
  H      0.767600    1.290913   -2.037670
  H      0.129508   -1.066059    1.502080
  H      0.102275   -1.875300   -0.081771
  H     -1.517737    1.595602   -1.195593
  H     -1.568382    0.729683   -2.736322
  H     -2.197184   -1.497052    0.703528
  H     -1.879359    0.222260    0.919755
  H     -3.427576   -0.814738   -2.516578
  H     -3.772824   -1.451484   -0.917841
  H     -5.267770    0.393835   -1.514402
  H     -3.925740    1.484226   -1.789074
  H      4.779815    0.544255   -0.241979
  H      4.517455   -0.400641    1.193716
  H      2.443713   -2.413814    1.024575
  H      3.091205   -0.079386   -2.512249
  H      4.733447    1.681898    2.633878
  H      5.002514    2.653903    1.156771
  H      6.150859    1.421848    1.638264
  H     -3.358872    2.961195   -0.060302
  H     -5.270375   -0.734259    0.942050
  H      3.466941   -4.381494   -0.085456
  H      4.114409   -2.046314   -3.624127
  H      4.299748   -4.194151   -2.408645
  H     -3.318593    3.590291    2.326490
  H     -5.228147   -0.113265    3.325120
  H     -4.233679    2.043473    4.033812
  H      2.978307    2.369841    1.692935

 Multiplicity           Mult            ....    1
 Number of Electrons    NEL             ....  182
 Basis Dimension        Dim             ....  949

ORBITAL ENERGIES
----------------

  NO   OCC          E(Eh)            E(eV)
   0   2.0000     -19.445150      -529.1294
   1   2.0000     -14.636004      -398.2659
   2   2.0000     -14.491497      -394.3337
   3   2.0000     -10.579099      -287.8719
   4   2.0000     -10.455653      -284.5128
   5   2.0000     -10.449143      -284.3356
   6   2.0000     -10.448699      -284.3236
   7   2.0000     -10.419811      -283.5375
   8   2.0000     -10.412162      -283.3293
   9   2.0000     -10.412007      -283.3251
  10   2.0000     -10.402908      -283.0775
  11   2.0000     -10.402819      -283.0751
  12   2.0000     -10.400350      -283.0079
  13   2.0000     -10.393809      -282.8299
  14   2.0000     -10.387509      -282.6585
  15   2.0000     -10.385713      -282.6096
  16   2.0000     -10.382591      -282.5247
  17   2.0000     -10.377311      -282.3810
  18   2.0000     -10.354965      -281.7729
  19   2.0000     -10.347603      -281.5726
  20   2.0000     -10.347027      -281.5569
  21   2.0000     -10.345943      -281.5274
  22   2.0000     -10.345224      -281.5079
  23   2.0000     -10.343773      -281.4684
  24   2.0000     -10.343682      -281.4659
  25   2.0000      -1.419126       -38.6164
  26   2.0000      -1.277928       -34.7742
  27   2.0000      -1.163816       -31.6690
  28   2.0000      -1.129814       -30.7438
  29   2.0000      -1.094672       -29.7876
  30   2.0000      -1.072970       -29.1970
  31   2.0000      -1.057754       -28.7829
  32   2.0000      -1.027939       -27.9716
  33   2.0000      -1.017674       -27.6923
  34   2.0000      -1.000281       -27.2190
  35   2.0000      -0.995845       -27.0983
  36   2.0000      -0.962583       -26.1932
  37   2.0000      -0.952846       -25.9282
  38   2.0000      -0.932590       -25.3771
  39   2.0000      -0.924726       -25.1631
  40   2.0000      -0.887848       -24.1596
  41   2.0000      -0.879701       -23.9379
  42   2.0000      -0.860882       -23.4258
  43   2.0000      -0.857314       -23.3287
  44   2.0000      -0.840043       -22.8587
  45   2.0000      -0.813385       -22.1333
  46   2.0000      -0.803935       -21.8762
  47   2.0000      -0.799999       -21.7691
  48   2.0000      -0.787902       -21.4399
  49   2.0000      -0.772122       -21.0105
  50   2.0000      -0.769647       -20.9432
  51   2.0000      -0.763954       -20.7882
  52   2.0000      -0.730755       -19.8849
  53   2.0000      -0.713534       -19.4162
  54   2.0000      -0.709186       -19.2979
  55   2.0000      -0.696976       -18.9657
  56   2.0000      -0.693318       -18.8661
  57   2.0000      -0.682988       -18.5851
  58   2.0000      -0.679207       -18.4822
  59   2.0000      -0.673340       -18.3225
  60   2.0000      -0.666061       -18.1244
  61   2.0000      -0.663283       -18.0488
  62   2.0000      -0.662411       -18.0251
  63   2.0000      -0.657760       -17.8986
  64   2.0000      -0.647572       -17.6213
  65   2.0000      -0.642492       -17.4831
  66   2.0000      -0.636109       -17.3094
  67   2.0000      -0.628601       -17.1051
  68   2.0000      -0.624827       -17.0024
  69   2.0000      -0.615047       -16.7363
  70   2.0000      -0.613222       -16.6866
  71   2.0000      -0.602871       -16.4050
  72   2.0000      -0.600652       -16.3446
  73   2.0000      -0.597631       -16.2624
  74   2.0000      -0.593340       -16.1456
  75   2.0000      -0.587665       -15.9912
  76   2.0000      -0.574802       -15.6411
  77   2.0000      -0.570351       -15.5201
  78   2.0000      -0.561330       -15.2746
  79   2.0000      -0.557285       -15.1645
  80   2.0000      -0.548163       -14.9163
  81   2.0000      -0.539997       -14.6941
  82   2.0000      -0.534479       -14.5439
  83   2.0000      -0.521908       -14.2018
  84   2.0000      -0.511136       -13.9087
  85   2.0000      -0.508004       -13.8235
  86   2.0000      -0.482381       -13.1262
  87   2.0000      -0.480474       -13.0744
  88   2.0000      -0.425324       -11.5737
  89   2.0000      -0.420355       -11.4384
  90   2.0000      -0.393950       -10.7199
  91   0.0000      -0.090560        -2.4643
  92   0.0000      -0.072051        -1.9606
  93   0.0000      -0.062865        -1.7106
  94   0.0000      -0.036081        -0.9818
  95   0.0000      -0.007937        -0.2160

MULLIKEN ATOMIC CHARGES
-----------------------
   0 O :   -0.315245
   1 N :   -0.080205
   2 N :    0.110118
   3 C :   -0.028238
   4 C :   -0.176482
   5 C :   -0.154365
   6 C :   -0.216218
   7 C :   -0.249453
   8 C :   -0.223215
   9 C :   -0.225967
  10 C :    0.112052
  11 C :    0.264457
  12 C :    0.152417
  13 C :   -0.165419
  14 C :   -0.278684
  15 C :   -0.277984
  16 C :   -0.479783
  17 C :   -0.203992
  18 C :   -0.206398
  19 C :   -0.059105
  20 C :   -0.058929
  21 C :   -0.111114
  22 C :   -0.127053
  23 C :   -0.121139
  24 C :   -0.126118
  25 H :    0.137132
  26 H :    0.118650
  27 H :    0.116509
  28 H :    0.114727
  29 H :    0.116762
  30 H :    0.094278
  31 H :    0.135473
  32 H :    0.126056
  33 H :    0.139081
  34 H :    0.128587
  35 H :    0.127969
  36 H :    0.136050
  37 H :    0.125151
  38 H :    0.174284
  39 H :    0.174553
  40 H :    0.161423
  41 H :    0.160901
  42 H :    0.160533
  43 H :    0.160987
  44 H :    0.174064
  45 H :    0.122315
  46 H :    0.126100
  47 H :    0.154393
  48 H :    0.154325
  49 H :    0.155707
  50 H :    0.123542
  51 H :    0.130680
  52 H :    0.129580
  53 H :    0.366251
Sum of atomic charges:    1.0000000

LOEWDIN ATOMIC CHARGES
----------------------
   0 O :    0.202453
   1 N :    0.101123
   2 N :    0.334309
   3 C :   -0.211674
   4 C :   -0.223026
   5 C :   -0.223131
   6 C :   -0.267404
   7 C :   -0.264292
   8 C :   -0.271440
   9 C :   -0.213567
  10 C :   -0.167335
  11 C :   -0.252814
  12 C :   -0.153381
  13 C :   -0.225092
  14 C :   -0.105359
  15 C :   -0.106082
  16 C :   -0.291346
  17 C :   -0.130221
  18 C :   -0.113129
  19 C :   -0.107873
  20 C :   -0.108074
  21 C :   -0.100896
  22 C :   -0.141349
  23 C :   -0.133109
  24 C :   -0.140261
  25 H :    0.165039
  26 H :    0.149053
  27 H :    0.138552
  28 H :    0.139115
  29 H :    0.148081
  30 H :    0.126045
  31 H :    0.141873
  32 H :    0.140659
  33 H :    0.138098
  34 H :    0.135468
  35 H :    0.135735
  36 H :    0.151175
  37 H :    0.140757
  38 H :    0.171786
  39 H :    0.171817
  40 H :    0.155886
  41 H :    0.155658
  42 H :    0.128647
  43 H :    0.128703
  44 H :    0.144428
  45 H :    0.142105
  46 H :    0.147507
  47 H :    0.155439
  48 H :    0.155387
  49 H :    0.155712
  50 H :    0.143307
  51 H :    0.145806
  52 H :    0.144419
  53 H :    0.216714

  Mayer bond orders larger than 0.100000
B(  0-O , 11-C ) :   1.3156 B(  0-O , 53-H ) :   0.8390 B(  1-N ,  6-C ) :   0.9831
B(  1-N ,  7-C ) :   1.0019 B(  1-N ,  8-C ) :   0.9769 B(  2-N ,  3-C ) :   0.8332
B(  2-N , 10-C ) :   0.7342 B(  2-N , 11-C ) :   1.6033 B(  3-C ,  4-C ) :   0.9895
B(  3-C ,  5-C ) :   0.9951 B(  3-C , 25-H ) :   0.9570 B(  4-C ,  6-C ) :   1.0323
B(  4-C , 26-H ) :   0.9372 B(  4-C , 27-H ) :   0.9670 B(  5-C ,  7-C ) :   1.0187
B(  5-C , 28-H ) :   0.9627 B(  5-C , 29-H ) :   0.9387 B(  6-C , 30-H ) :   0.9692
B(  6-C , 31-H ) :   0.9622 B(  7-C , 32-H ) :   0.9613 B(  7-C , 33-H ) :   0.9790
B(  8-C ,  9-C ) :   0.9286 B(  8-C , 34-H ) :   0.9881 B(  8-C , 35-H ) :   0.9859
B(  9-C , 12-C ) :   0.9020 B(  9-C , 36-H ) :   0.9706 B(  9-C , 37-H ) :   0.9912
B( 10-C , 14-C ) :   1.4138 B( 10-C , 15-C ) :   1.4136 B( 11-C , 13-C ) :   1.0157
B( 12-C , 17-C ) :   1.3795 B( 12-C , 18-C ) :   1.3397 B( 13-C , 16-C ) :   0.9441
B( 13-C , 38-H ) :   0.9269 B( 13-C , 39-H ) :   0.9266 B( 14-C , 19-C ) :   1.4348
B( 14-C , 40-H ) :   0.9791 B( 15-C , 20-C ) :   1.4346 B( 15-C , 41-H ) :   0.9794
B( 16-C , 42-H ) :   0.9703 B( 16-C , 43-H ) :   0.9707 B( 16-C , 44-H ) :   0.9619
B( 17-C , 22-C ) :   1.4385 B( 17-C , 45-H ) :   0.9724 B( 18-C , 23-C ) :   1.4536
B( 18-C , 46-H ) :   0.9848 B( 19-C , 21-C ) :   1.4131 B( 19-C , 47-H ) :   0.9626
B( 20-C , 21-C ) :   1.4138 B( 20-C , 48-H ) :   0.9625 B( 21-C , 49-H ) :   0.9624
B( 22-C , 24-C ) :   1.4277 B( 22-C , 50-H ) :   0.9770 B( 23-C , 24-C ) :   1.4069
B( 23-C , 51-H ) :   0.9732 B( 24-C , 52-H ) :   0.9718

Dispersion correction           -0.123700079
FINAL SINGLE POINT ENERGY     -1041.208787553724

DIPOLE MOMENT
-------------
                                X             Y             Z
Electronic contribution:      2.41348      -2.20223       0.69210
Nuclear contribution   :      2.28774       2.44498      -0.32540
                        -----------------------------------------
Total Dipole Moment    :      4.70122       0.24275       0.36670
                        -----------------------------------------
Magnitude (a.u.)       :      4.72175
Magnitude (Debye)      :     12.00173

Dispersion correction in the Hessian             ... done   (      2.8 sec)

VIBRATIONAL FREQUENCIES
-----------------------

Scaling factor for frequencies =  1.000000000  (already applied!)

   0:         0.00 cm**-1
   1:         0.00 cm**-1
   2:         0.00 cm**-1
   3:         0.00 cm**-1
   4:         0.00 cm**-1
   5:         0.00 cm**-1
   6:        -8.59 cm**-1 ***imaginary mode***
   7:        24.06 cm**-1
   8:        35.33 cm**-1
   9:        42.21 cm**-1
  10:        51.53 cm**-1
  11:        60.28 cm**-1
  12:        69.69 cm**-1
  13:        76.82 cm**-1
  14:        91.02 cm**-1
  15:       104.14 cm**-1
  16:       125.26 cm**-1
  17:       151.71 cm**-1
  18:       181.89 cm**-1
  19:       231.00 cm**-1
  20:       243.78 cm**-1
  21:       258.70 cm**-1
  22:       264.35 cm**-1
  23:       279.28 cm**-1
  24:       281.21 cm**-1
  25:       320.64 cm**-1
  26:       346.86 cm**-1
  27:       358.07 cm**-1
  28:       395.35 cm**-1
  29:       406.89 cm**-1
  30:       420.49 cm**-1
  31:       425.57 cm**-1
  32:       428.28 cm**-1
  33:       469.54 cm**-1
  34:       472.91 cm**-1
  35:       501.98 cm**-1
  36:       506.79 cm**-1
  37:       508.69 cm**-1
  38:       541.64 cm**-1
  39:       556.56 cm**-1
  40:       608.96 cm**-1
  41:       622.76 cm**-1
  42:       627.28 cm**-1
  43:       638.82 cm**-1
  44:       662.88 cm**-1
  45:       672.74 cm**-1
  46:       727.31 cm**-1
  47:       730.35 cm**-1
  48:       758.21 cm**-1
  49:       768.81 cm**-1
  50:       781.86 cm**-1
  51:       792.51 cm**-1
  52:       811.39 cm**-1
  53:       812.63 cm**-1
  54:       849.50 cm**-1
  55:       866.62 cm**-1
  56:       880.92 cm**-1
  57:       882.20 cm**-1
  58:       911.79 cm**-1
  59:       939.44 cm**-1
  60:       953.92 cm**-1
  61:       960.53 cm**-1
  62:       972.49 cm**-1
  63:       981.84 cm**-1
  64:      1007.92 cm**-1
  65:      1009.31 cm**-1
  66:      1011.73 cm**-1
  67:      1022.86 cm**-1
  68:      1023.46 cm**-1
  69:      1028.73 cm**-1
  70:      1033.60 cm**-1
  71:      1036.49 cm**-1
  72:      1044.74 cm**-1
  73:      1046.52 cm**-1
  74:      1054.65 cm**-1
  75:      1063.49 cm**-1
  76:      1069.24 cm**-1
  77:      1077.31 cm**-1
  78:      1116.05 cm**-1
  79:      1117.54 cm**-1
  80:      1118.29 cm**-1
  81:      1120.18 cm**-1
  82:      1148.08 cm**-1
  83:      1151.71 cm**-1
  84:      1171.76 cm**-1
  85:      1183.01 cm**-1
  86:      1189.44 cm**-1
  87:      1197.21 cm**-1
  88:      1203.06 cm**-1
  89:      1206.62 cm**-1
  90:      1212.07 cm**-1
  91:      1236.78 cm**-1
  92:      1245.81 cm**-1
  93:      1249.84 cm**-1
  94:      1271.51 cm**-1
  95:      1282.46 cm**-1
  96:      1304.21 cm**-1
  97:      1314.55 cm**-1
  98:      1315.72 cm**-1
  99:      1319.25 cm**-1
 100:      1342.00 cm**-1
 101:      1352.61 cm**-1
 102:      1356.99 cm**-1
 103:      1361.04 cm**-1
 104:      1370.45 cm**-1
 105:      1373.57 cm**-1
 106:      1386.35 cm**-1
 107:      1392.55 cm**-1
 108:      1399.83 cm**-1
 109:      1408.23 cm**-1
 110:      1415.87 cm**-1
 111:      1429.15 cm**-1
 112:      1445.31 cm**-1
 113:      1447.00 cm**-1
 114:      1455.14 cm**-1
 115:      1484.03 cm**-1
 116:      1489.14 cm**-1
 117:      1489.63 cm**-1
 118:      1497.40 cm**-1
 119:      1508.22 cm**-1
 120:      1508.69 cm**-1
 121:      1510.57 cm**-1
 122:      1512.29 cm**-1
 123:      1517.73 cm**-1
 124:      1519.33 cm**-1
 125:      1523.28 cm**-1
 126:      1553.47 cm**-1
 127:      1555.42 cm**-1
 128:      1671.47 cm**-1
 129:      1680.20 cm**-1
 130:      1682.62 cm**-1
 131:      1694.37 cm**-1
 132:      1733.92 cm**-1
 133:      2971.90 cm**-1
 134:      3010.74 cm**-1
 135:      3058.39 cm**-1
 136:      3059.32 cm**-1
 137:      3071.74 cm**-1
 138:      3073.57 cm**-1
 139:      3075.20 cm**-1
 140:      3100.17 cm**-1
 141:      3104.93 cm**-1
 142:      3110.20 cm**-1
 143:      3120.15 cm**-1
 144:      3122.24 cm**-1
 145:      3126.94 cm**-1
 146:      3132.54 cm**-1
 147:      3134.76 cm**-1
 148:      3143.47 cm**-1
 149:      3161.47 cm**-1
 150:      3166.88 cm**-1
 151:      3182.25 cm**-1
 152:      3185.61 cm**-1
 153:      3201.02 cm**-1
 154:      3210.02 cm**-1
 155:      3210.58 cm**-1
 156:      3213.88 cm**-1
 157:      3220.88 cm**-1
 158:      3223.40 cm**-1
 159:      3229.52 cm**-1
 160:      3237.27 cm**-1
 161:      3785.22 cm**-1

IR SPECTRUM
-----------

 Mode   freq       eps      Int      T**2         TX        TY        TZ
       cm**-1   L/(mol*cm) km/mol    a.u.
----------------------------------------------------------------------------
  7:     24.06   0.000213    1.08  0.002760  ( 0.048506 -0.010504 -0.017241)
  8:     35.33   0.000095    0.48  0.000835  ( 0.005300  0.015522 -0.023788)
  9:     42.21   0.000034    0.17  0.000253  ( 0.011118 -0.002295 -0.011124)
 10:     51.53   0.000035    0.18  0.000213  (-0.006276 -0.004205  0.012481)
 11:     60.28   0.000030    0.15  0.000155  ( 0.008925 -0.008571  0.001304)
 12:     69.69   0.000025    0.13  0.000114  (-0.002165 -0.005685  0.008766)
 13:     76.82   0.000162    0.82  0.000660  ( 0.013290 -0.020797 -0.007122)
 14:     91.02   0.000249    1.26  0.000854  ( 0.006426  0.015622 -0.023852)
 15:    104.14   0.000002    0.01  0.000006  ( 0.001188 -0.001508  0.001525)
 16:    125.26   0.000052    0.26  0.000128  ( 0.007430 -0.008006 -0.003004)
 17:    151.71   0.000056    0.29  0.000116  (-0.001388 -0.005941  0.008881)
 18:    181.89   0.000263    1.33  0.000452  (-0.019661  0.007855  0.001815)
 19:    231.00   0.000679    3.43  0.000917  ( 0.022574  0.015608  0.012798)
 20:    243.78   0.000065    0.33  0.000083  (-0.000639 -0.004998 -0.007563)
 21:    258.70   0.000335    1.69  0.000404  (-0.018825  0.006710  0.002247)
 22:    264.35   0.000010    0.05  0.000012  ( 0.002898  0.000408 -0.001846)
 23:    279.28   0.000299    1.51  0.000334  (-0.016267  0.003874 -0.007406)
 24:    281.21   0.000157    0.80  0.000175  ( 0.009583  0.005418 -0.007314)
 25:    320.64   0.000279    1.41  0.000272  ( 0.004997 -0.013440 -0.008148)
 26:    346.86   0.000762    3.85  0.000686  (-0.015974  0.019451  0.007212)
 27:    358.07   0.000488    2.47  0.000425  ( 0.017614 -0.007012 -0.008109)
 28:    395.35   0.000109    0.55  0.000086  ( 0.005492 -0.006773  0.003171)
 29:    406.89   0.000843    4.26  0.000646  (-0.001575  0.020679  0.014708)
 30:    420.49   0.000005    0.03  0.000004  ( 0.001532  0.001133  0.000521)
 31:    425.57   0.000006    0.03  0.000005  (-0.000357 -0.000951  0.001893)
 32:    428.28   0.000211    1.07  0.000154  (-0.001250  0.009909  0.007347)
 33:    469.54   0.000012    0.06  0.000008  ( 0.001236 -0.000951  0.002336)
 34:    472.91   0.000043    0.22  0.000028  ( 0.004987  0.001816 -0.000114)
 35:    501.98   0.001947    9.84  0.001210  ( 0.030610  0.003476 -0.016165)
 36:    506.79   0.003277   16.56  0.002018  ( 0.014236 -0.026827  0.033096)
 37:    508.69   0.000675    3.41  0.000414  (-0.012162 -0.014833 -0.006790)
 38:    541.64   0.011650   58.88  0.006712  (-0.014936 -0.044253  0.067311)
 39:    556.56   0.000116    0.59  0.000065  (-0.006998 -0.003714  0.001585)
 40:    608.96   0.003920   19.81  0.002009  (-0.040052  0.019895  0.002967)
 41:    622.76   0.000400    2.02  0.000201  (-0.002574 -0.008178  0.011270)
 42:    627.28   0.002362   11.94  0.001175  (-0.017642  0.025718  0.014231)
 43:    638.82   0.000006    0.03  0.000003  (-0.001240  0.000741  0.000953)
 44:    662.88   0.000071    0.36  0.000034  ( 0.001428  0.003615 -0.004300)
 45:    672.74   0.000353    1.78  0.000164  ( 0.009832  0.005252  0.006281)
 46:    727.31   0.007468   37.74  0.003204  ( 0.051204 -0.023779  0.004093)
 47:    730.35   0.008595   43.44  0.003673  ( 0.057852  0.008829  0.015743)
 48:    758.21   0.007429   37.54  0.003057  ( 0.050546  0.011471  0.019260)
 49:    768.81   0.007014   35.45  0.002847  (-0.033954  0.038350  0.014949)
 50:    781.86   0.001911    9.66  0.000763  (-0.024005  0.009324 -0.009977)
 51:    792.51   0.000516    2.61  0.000203  (-0.001518 -0.013888 -0.002800)
 52:    811.39   0.001897    9.59  0.000730  ( 0.004001  0.014281 -0.022577)
 53:    812.63   0.002358   11.92  0.000906  ( 0.027334  0.007884  0.009817)
 54:    849.50   0.000056    0.28  0.000021  (-0.002207 -0.002773  0.002827)
 55:    866.62   0.000311    1.57  0.000112  (-0.000234  0.009087  0.005418)
 56:    880.92   0.000050    0.25  0.000018  (-0.000668 -0.002125  0.003573)
 57:    882.20   0.000107    0.54  0.000038  (-0.000140  0.006043  0.001171)
 58:    911.79   0.000219    1.11  0.000075  ( 0.002210 -0.008007 -0.002426)
 59:    939.44   0.004038   20.41  0.001341  ( 0.017995 -0.027088 -0.016848)
 60:    953.92   0.000488    2.47  0.000160  ( 0.005756 -0.007881 -0.008023)
 61:    960.53   0.001047    5.29  0.000340  (-0.009596  0.015057  0.004625)
 62:    972.49   0.000400    2.02  0.000128  (-0.009917  0.004963  0.002331)
 63:    981.84   0.000719    3.63  0.000229  ( 0.006433  0.013507 -0.002186)
 64:   1007.92   0.000046    0.23  0.000014  ( 0.002273  0.003010  0.000162)
 65:   1009.31   0.000047    0.24  0.000015  ( 0.000174  0.003761 -0.000689)
 66:   1011.73   0.000495    2.50  0.000153  ( 0.000896  0.006094  0.010709)
 67:   1022.86   0.000042    0.21  0.000013  (-0.002650  0.001896  0.001432)
 68:   1023.46   0.000007    0.03  0.000002  ( 0.000040  0.001427 -0.000073)
 69:   1028.73   0.004260   21.53  0.001292  ( 0.004053  0.029213  0.020552)
 70:   1033.60   0.000352    1.78  0.000106  (-0.006101  0.006829  0.004750)
 71:   1036.49   0.000163    0.82  0.000049  ( 0.000339 -0.005388 -0.004466)
 72:   1044.74   0.001860    9.40  0.000556  (-0.020862  0.007314 -0.008172)
 73:   1046.52   0.000069    0.35  0.000021  (-0.002637  0.003552  0.001003)
 74:   1054.65   0.001491    7.54  0.000441  (-0.003106 -0.001344  0.020732)
 75:   1063.49   0.001492    7.54  0.000438  (-0.018287 -0.008800 -0.005093)
 76:   1069.24   0.000488    2.46  0.000142  ( 0.002647 -0.005250 -0.010381)
 77:   1077.31   0.012015   60.72  0.003480  ( 0.058591  0.002101  0.006558)
 78:   1116.05   0.002684   13.57  0.000751  ( 0.025462  0.007300  0.007000)
 79:   1117.54   0.000974    4.92  0.000272  ( 0.003275  0.010124 -0.012600)
 80:   1118.29   0.000547    2.76  0.000153  (-0.001972 -0.007285  0.009775)
 81:   1120.18   0.000782    3.95  0.000218  ( 0.007930  0.010149  0.007201)
 82:   1148.08   0.000085    0.43  0.000023  ( 0.003414 -0.003321 -0.000683)
 83:   1151.71   0.003350   16.93  0.000908  ( 0.029278  0.006346  0.003178)
 84:   1171.76   0.001956    9.88  0.000521  (-0.004703 -0.010859  0.019514)
 85:   1183.01   0.000462    2.34  0.000122  (-0.003683 -0.006956  0.007747)
 86:   1189.44   0.000146    0.74  0.000038  ( 0.000900  0.003360 -0.005127)
 87:   1197.21   0.001057    5.34  0.000276  (-0.013861  0.008691  0.002814)
 88:   1203.06   0.002927   14.79  0.000759  ( 0.023267 -0.014431  0.003100)
 89:   1206.62   0.001536    7.76  0.000397  (-0.013053  0.014518  0.004021)
 90:   1212.07   0.000112    0.57  0.000029  ( 0.000448  0.003728  0.003832)
 91:   1236.78   0.008234   41.61  0.002078  ( 0.005605 -0.038660 -0.023488)
 92:   1245.81   0.000151    0.76  0.000038  ( 0.005293 -0.003138 -0.000048)
 93:   1249.84   0.000395    2.00  0.000099  ( 0.007371  0.006281 -0.002208)
 94:   1271.51   0.000734    3.71  0.000180  (-0.011408  0.001439  0.006915)
 95:   1282.46   0.008664   43.78  0.002108  ( 0.026179 -0.034576 -0.015079)
 96:   1304.21   0.000420    2.12  0.000101  ( 0.001554  0.005362 -0.008329)
 97:   1314.55   0.000414    2.09  0.000098  (-0.006549 -0.006070 -0.004303)
 98:   1315.72   0.000330    1.67  0.000078  (-0.001136 -0.005024  0.007188)
 99:   1319.25   0.000194    0.98  0.000046  ( 0.005371 -0.002922 -0.002907)
100:   1342.00   0.000188    0.95  0.000044  ( 0.003981  0.001840 -0.004945)
101:   1352.61   0.008839   44.67  0.002039  (-0.044951 -0.004100 -0.001375)
102:   1356.99   0.001027    5.19  0.000236  ( 0.010192  0.000454  0.011492)
103:   1361.04   0.000272    1.37  0.000062  (-0.001981 -0.003625  0.006730)
104:   1370.45   0.001989   10.05  0.000453  ( 0.020195 -0.006685 -0.000530)
105:   1373.57   0.002400   12.13  0.000545  ( 0.005645  0.010449 -0.020107)
106:   1386.35   0.000535    2.70  0.000120  (-0.009393 -0.002187 -0.005236)
107:   1392.55   0.000839    4.24  0.000188  ( 0.004604 -0.004528  0.012097)
108:   1399.83   0.000167    0.85  0.000037  ( 0.002752 -0.001174  0.005322)
109:   1408.23   0.005209   26.33  0.001154  (-0.032324 -0.003624  0.009819)
110:   1415.87   0.004282   21.64  0.000944  ( 0.026925 -0.008288  0.012256)
111:   1429.15   0.015193   76.78  0.003317  (-0.012825  0.047828  0.029417)
112:   1445.31   0.006385   32.27  0.001379  (-0.031687 -0.007466 -0.017858)
113:   1447.00   0.009332   47.16  0.002013  (-0.023423  0.033202  0.019014)
114:   1455.14   0.005851   29.57  0.001255  (-0.020112  0.026751  0.011602)
115:   1484.03   0.014767   74.63  0.003105  ( 0.025590 -0.043614 -0.023414)
116:   1489.14   0.000816    4.12  0.000171  ( 0.003973 -0.012149 -0.002760)
117:   1489.63   0.001727    8.73  0.000362  (-0.002800  0.018769  0.001268)
118:   1497.40   0.001532    7.74  0.000319  (-0.015053 -0.004722 -0.008384)
119:   1508.22   0.002423   12.24  0.000501  ( 0.020124 -0.001447 -0.009707)
120:   1508.69   0.001123    5.68  0.000232  (-0.004566  0.014206 -0.003118)
121:   1510.57   0.001066    5.39  0.000220  ( 0.002620  0.006557 -0.013052)
122:   1512.29   0.001140    5.76  0.000235  (-0.003832  0.014579 -0.002826)
123:   1517.73   0.002865   14.48  0.000589  (-0.005819 -0.012001  0.020277)
124:   1519.33   0.005503   27.81  0.001130  (-0.030470  0.014122  0.001578)
125:   1523.28   0.000856    4.33  0.000175  ( 0.011796 -0.005836  0.001468)
126:   1553.47   0.005955   30.09  0.001196  ( 0.019001 -0.025373 -0.013835)
127:   1555.42   0.002437   12.31  0.000489  (-0.001609  0.007796  0.020628)
128:   1671.47   0.000207    1.04  0.000039  (-0.002850 -0.005369  0.001273)
129:   1680.20   0.000857    4.33  0.000159  (-0.002012 -0.007252  0.010121)
130:   1682.62   0.003179   16.06  0.000590  ( 0.007935  0.018231  0.013935)
131:   1694.37   0.001207    6.10  0.000222  (-0.006080  0.005175  0.012595)
132:   1733.92   0.071105  359.34  0.012797  ( 0.073101  0.066143  0.055485)
133:   2971.90   0.008211   41.49  0.000862  ( 0.007371 -0.028107 -0.004224)
134:   3010.74   0.006006   30.35  0.000622  ( 0.004154 -0.012132 -0.021402)
135:   3058.39   0.004248   21.47  0.000433  (-0.007985 -0.015115 -0.011881)
136:   3059.32   0.001356    6.85  0.000138  (-0.004439  0.009423  0.005462)
137:   3071.74   0.007587   38.34  0.000771  (-0.015426 -0.001672 -0.023023)
138:   3073.57   0.003122   15.78  0.000317  ( 0.004297  0.010129 -0.013996)
139:   3075.20   0.004427   22.37  0.000449  ( 0.020308 -0.006043 -0.000588)
140:   3100.17   0.001413    7.14  0.000142  ( 0.009771  0.004816  0.004857)
141:   3104.93   0.001114    5.63  0.000112  ( 0.006706  0.003726  0.007288)
142:   3110.20   0.003301   16.68  0.000331  (-0.003732  0.003481 -0.017470)
143:   3120.15   0.003928   19.85  0.000393  ( 0.008946  0.010519 -0.014219)
144:   3122.24   0.001193    6.03  0.000119  ( 0.001742  0.005992 -0.008963)
145:   3126.94   0.004546   22.97  0.000454  (-0.011569 -0.009416  0.015204)
146:   3132.54   0.003542   17.90  0.000353  (-0.005168 -0.016768 -0.006711)
147:   3134.76   0.000443    2.24  0.000044  ( 0.001137 -0.001336  0.006406)
148:   3143.47   0.000192    0.97  0.000019  ( 0.000722  0.002395 -0.003572)
149:   3161.47   0.001550    7.83  0.000153  ( 0.005491 -0.009625 -0.005492)
150:   3166.88   0.000190    0.96  0.000019  (-0.003673  0.002147  0.000770)
151:   3182.25   0.001821    9.20  0.000179  ( 0.005369  0.002041 -0.012064)
152:   3185.61   0.001044    5.28  0.000102  ( 0.002684  0.008200  0.005276)
153:   3201.02   0.000606    3.06  0.000059  ( 0.001925  0.001716 -0.007243)
154:   3210.02   0.003491   17.64  0.000339  (-0.008576 -0.016118  0.002460)
155:   3210.58   0.000289    1.46  0.000028  (-0.002511  0.004089  0.002260)
156:   3213.88   0.000015    0.08  0.000001  ( 0.000160  0.000694 -0.000970)
157:   3220.88   0.000599    3.02  0.000058  ( 0.003473 -0.005927 -0.003287)
158:   3223.40   0.001678    8.48  0.000162  (-0.001899  0.003275  0.012169)
159:   3229.52   0.000184    0.93  0.000018  ( 0.000681  0.002203 -0.003529)
160:   3237.27   0.000059    0.30  0.000006  ( 0.001119 -0.001821 -0.001037)
161:   3785.22   0.054748  276.68  0.004514  ( 0.039801  0.041953  0.034197)

--------------------------
THERMOCHEMISTRY AT 298.15K
--------------------------

Temperature         ... 298.15 K
Pressure            ... 1.00 atm
Total Mass          ... 337.49 AMU

Throughout the following assumptions are being made:
  (1) The electronic state is orbitally nondegenerate
  (2) There are no thermally accessible electronically excited states
  (3) Hindered rotations indicated by low frequency modes are not
      treated as such but are treated as vibrations and this may
      cause some error
  (4) All equations used are the standard statistical mechanics
      equations for an ideal gas
  (5) All vibrations are strictly harmonic

freq.      24.06  E(vib)   ...       0.56
freq.      35.33  E(vib)   ...       0.54
freq.      42.21  E(vib)   ...       0.53
freq.      51.53  E(vib)   ...       0.52
freq.      60.28  E(vib)   ...       0.51
freq.      69.69  E(vib)   ...       0.50
freq.      76.82  E(vib)   ...       0.49
freq.      91.02  E(vib)   ...       0.47
freq.     104.14  E(vib)   ...       0.46
freq.     125.26  E(vib)   ...       0.43
freq.     151.71  E(vib)   ...       0.40
freq.     181.89  E(vib)   ...       0.37
freq.     231.00  E(vib)   ...       0.32
freq.     243.78  E(vib)   ...       0.31
freq.     258.70  E(vib)   ...       0.30
freq.     264.35  E(vib)   ...       0.29
freq.     279.28  E(vib)   ...       0.28
freq.     281.21  E(vib)   ...       0.28
freq.     320.64  E(vib)   ...       0.25
freq.     346.86  E(vib)   ...       0.23
freq.     358.07  E(vib)   ...       0.22
freq.     395.35  E(vib)   ...       0.20
freq.     406.89  E(vib)   ...       0.19
freq.     420.49  E(vib)   ...       0.18
freq.     425.57  E(vib)   ...       0.18
freq.     428.28  E(vib)   ...       0.18
freq.     469.54  E(vib)   ...       0.16
freq.     472.91  E(vib)   ...       0.15
freq.     501.98  E(vib)   ...       0.14
freq.     506.79  E(vib)   ...       0.14
freq.     508.69  E(vib)   ...       0.14
freq.     541.64  E(vib)   ...       0.12
freq.     556.56  E(vib)   ...       0.12
freq.     608.96  E(vib)   ...       0.10
freq.     622.76  E(vib)   ...       0.09
freq.     627.28  E(vib)   ...       0.09
freq.     638.82  E(vib)   ...       0.09
freq.     662.88  E(vib)   ...       0.08
freq.     672.74  E(vib)   ...       0.08
freq.     727.31  E(vib)   ...       0.06
freq.     730.35  E(vib)   ...       0.06
freq.     758.21  E(vib)   ...       0.06
freq.     768.81  E(vib)   ...       0.06
freq.     781.86  E(vib)   ...       0.05
freq.     792.51  E(vib)   ...       0.05
freq.     811.39  E(vib)   ...       0.05
freq.     812.63  E(vib)   ...       0.05
freq.     849.50  E(vib)   ...       0.04
freq.     866.62  E(vib)   ...       0.04
freq.     880.92  E(vib)   ...       0.04
freq.     882.20  E(vib)   ...       0.04
freq.     911.79  E(vib)   ...       0.03
freq.     939.44  E(vib)   ...       0.03
freq.     953.92  E(vib)   ...       0.03
freq.     960.53  E(vib)   ...       0.03
freq.     972.49  E(vib)   ...       0.03
freq.     981.84  E(vib)   ...       0.02
freq.    1007.92  E(vib)   ...       0.02
freq.    1009.31  E(vib)   ...       0.02
freq.    1011.73  E(vib)   ...       0.02
freq.    1022.86  E(vib)   ...       0.02
freq.    1023.46  E(vib)   ...       0.02
freq.    1028.73  E(vib)   ...       0.02
freq.    1033.60  E(vib)   ...       0.02
freq.    1036.49  E(vib)   ...       0.02
freq.    1044.74  E(vib)   ...       0.02
freq.    1046.52  E(vib)   ...       0.02
freq.    1054.65  E(vib)   ...       0.02
freq.    1063.49  E(vib)   ...       0.02
freq.    1069.24  E(vib)   ...       0.02
freq.    1077.31  E(vib)   ...       0.02
freq.    1116.05  E(vib)   ...       0.01
freq.    1117.54  E(vib)   ...       0.01
freq.    1118.29  E(vib)   ...       0.01
freq.    1120.18  E(vib)   ...       0.01
freq.    1148.08  E(vib)   ...       0.01
freq.    1151.71  E(vib)   ...       0.01
freq.    1171.76  E(vib)   ...       0.01
freq.    1183.01  E(vib)   ...       0.01
freq.    1189.44  E(vib)   ...       0.01
freq.    1197.21  E(vib)   ...       0.01
freq.    1203.06  E(vib)   ...       0.01
freq.    1206.62  E(vib)   ...       0.01
freq.    1212.07  E(vib)   ...       0.01
freq.    1236.78  E(vib)   ...       0.01
freq.    1245.81  E(vib)   ...       0.01
freq.    1249.84  E(vib)   ...       0.01
freq.    1271.51  E(vib)   ...       0.01
freq.    1282.46  E(vib)   ...       0.01
freq.    1304.21  E(vib)   ...       0.01
freq.    1314.55  E(vib)   ...       0.01
freq.    1315.72  E(vib)   ...       0.01
freq.    1319.25  E(vib)   ...       0.01
freq.    1342.00  E(vib)   ...       0.01
freq.    1352.61  E(vib)   ...       0.01
freq.    1356.99  E(vib)   ...       0.01
freq.    1361.04  E(vib)   ...       0.01
freq.    1370.45  E(vib)   ...       0.01
freq.    1373.57  E(vib)   ...       0.01
freq.    1386.35  E(vib)   ...       0.00
freq.    1392.55  E(vib)   ...       0.00
freq.    1399.83  E(vib)   ...       0.00
freq.    1408.23  E(vib)   ...       0.00
freq.    1415.87  E(vib)   ...       0.00
freq.    1429.15  E(vib)   ...       0.00
freq.    1445.31  E(vib)   ...       0.00
freq.    1447.00  E(vib)   ...       0.00
freq.    1455.14  E(vib)   ...       0.00
freq.    1484.03  E(vib)   ...       0.00
freq.    1489.14  E(vib)   ...       0.00
freq.    1489.63  E(vib)   ...       0.00
freq.    1497.40  E(vib)   ...       0.00
freq.    1508.22  E(vib)   ...       0.00
freq.    1508.69  E(vib)   ...       0.00
freq.    1510.57  E(vib)   ...       0.00
freq.    1512.29  E(vib)   ...       0.00
freq.    1517.73  E(vib)   ...       0.00
freq.    1519.33  E(vib)   ...       0.00
freq.    1523.28  E(vib)   ...       0.00
freq.    1553.47  E(vib)   ...       0.00
freq.    1555.42  E(vib)   ...       0.00
freq.    1671.47  E(vib)   ...       0.00
freq.    1680.20  E(vib)   ...       0.00
freq.    1682.62  E(vib)   ...       0.00
freq.    1694.37  E(vib)   ...       0.00
freq.    1733.92  E(vib)   ...       0.00
freq.    2971.90  E(vib)   ...       0.00
freq.    3010.74  E(vib)   ...       0.00
freq.    3058.39  E(vib)   ...       0.00
freq.    3059.32  E(vib)   ...       0.00
freq.    3071.74  E(vib)   ...       0.00
freq.    3073.57  E(vib)   ...       0.00
freq.    3075.20  E(vib)   ...       0.00
freq.    3100.17  E(vib)   ...       0.00
freq.    3104.93  E(vib)   ...       0.00
freq.    3110.20  E(vib)   ...       0.00
freq.    3120.15  E(vib)   ...       0.00
freq.    3122.24  E(vib)   ...       0.00
freq.    3126.94  E(vib)   ...       0.00
freq.    3132.54  E(vib)   ...       0.00
freq.    3134.76  E(vib)   ...       0.00
freq.    3143.47  E(vib)   ...       0.00
freq.    3161.47  E(vib)   ...       0.00
freq.    3166.88  E(vib)   ...       0.00

Rotational constants in cm-1:     0.012640     0.003850     0.003338

                             ****ORCA TERMINATED NORMALLY****
TOTAL RUN TIME: 0 days 6 hours 48 minutes 35 seconds 316 msec
