                         Program Version 5.0.4 -  RELEASE  -
|  1> ! wB97X-D3BJ TightOpt Freq def2-TZVP def2/J RIJCOSX TightSCF defgrid3 CHELPG
|  2> %maxcore 3400
|  3>
|  4> %pal nprocs 8
|  5> end
|  6>
|  7> %chelpg
|  8> grid 0.1
|  9> rmax 3.0
| 10> end
| 11>
| 12> *xyz 1 1
| 13> O         2.4630292735     1.7470262634    -1.4511564797
| 14> N        -1.4227379380     1.3828259229     1.0095436651
| 15> N         1.5103588620     0.7081175859     0.2883204318
| 16> C         1.1906803203     2.0243948502     0.8778004238
| 17> C         0.2207175158     2.8229247723    -0.0165786938
| 18> C         0.6169740234     1.9122498608     2.2869616119
| 19> C        -1.2221237689     2.7211304254     0.4865769946
| 20> C        -0.7986812093     1.3102548495     2.3208102460
| 21> C        -2.8119457732     0.9549614726     1.0601543859
| 22> C        -3.4322252109     0.7379867963    -0.3289208680
| 23> C         1.2737843916    -0.5049585171     1.0204536421
| 24> C         2.1183180261     0.6319354776    -0.8567639837
| 25> C        -2.6417768526    -0.2382247231    -1.1502319627
| 26> C         2.4271574522    -0.6898976497    -1.4828229180
| 27> C         2.2109205528    -0.9142270555     1.9606989763
| 28> C         0.1450318874    -1.2651587787     0.7631470021
| 29> C         3.2230062580    -0.5870635279    -2.7813772987
| 30> C        -2.8177375434    -1.6077433126    -0.9781534743
| 31> C        -1.7079553123     0.1998867947    -2.0815515352
| 32> C         2.0000790580    -2.0911927779     2.6590331412
| 33> C        -0.0520997144    -2.4428354209     1.4642694779
| 34> C         0.8714211275    -2.8557288210     2.4104877046
| 35> C        -2.0708483036    -2.5159945065    -1.7078710589
| 36> C        -0.9584533184    -0.7068347882    -2.8125862035
| 37> C        -1.1327340309    -2.0679992747    -2.6236733598
| 38> H         2.1458703074     2.5620602610     0.9246777397
| 39> H         0.2642208684     2.4473825821    -1.0366357379
| 40> H         0.5311413914     3.8669089556    -0.0357085226
| 41> H         0.5889351781     2.9303886245     2.6777157720
| 42> H         1.2794665410     1.3380909555     2.9334222454
| 43> H        -1.4216776633     3.4872438910     1.2531415190
| 44> H        -1.9012635940     2.9063490004    -0.3433873403
| 45> H        -0.7664438785     0.2628471885     2.6280312804
| 46> H        -1.3939631987     1.8561519240     3.0736407176
| 47> H        -2.8286693693     0.0046102375     1.6009364379
| 48> H        -3.4348754574     1.6727218191     1.6195177533
| 49> H        -3.5160102469     1.6869541491    -0.8592684900
| 50> H        -4.4426104419     0.3556791542    -0.1751223672
| 51> H         1.4758976580    -1.2003995462    -1.6696634490
| 52> H         2.9692768302    -1.3038244053    -0.7585383193
| 53> H         3.0940142999    -0.3201495099     2.1442491215
| 54> H        -0.5797428459    -0.9162269777     0.0486036168
| 55> H         3.4157453830    -1.5883272080    -3.1561356651
| 56> H         4.1906959464    -0.1113903463    -2.6262839079
| 57> H         2.6681523907    -0.0588834644    -3.5559130707
| 58> H        -3.5554753227    -1.9623415628    -0.2733461081
| 59> H        -1.5822071182     1.2589990175    -2.2530595553
| 60> H         2.7202083935    -2.4093479062     3.3961402038
| 61> H        -0.9328476062    -3.0331518885     1.2675570851
| 62> H         0.7132611651    -3.7720040417     2.9568321589
| 63> H        -2.2272813178    -3.5754405800    -1.5729107920
| 64> H        -0.2556592656    -0.3497752795    -3.5531088475
| 65> H        -0.5587019419    -2.7764065729    -3.2022939681
| 66> H         2.9282479822     1.5869103451    -2.2913627012
| 67> *
| 68>
| 69>
| 70>                          ****END OF INPUT****
 Total Charge           Charge          ....    1
 Multiplicity           Mult            ....    1
 Number of Electrons    NEL             ....  182
Dispersion correction           -0.135498298
FINAL SINGLE POINT ENERGY     -1041.208054813318
Dispersion correction            ... done
Dispersion correction           -0.133590940
FINAL SINGLE POINT ENERGY     -1041.208967250576
Dispersion correction            ... done
Dispersion correction           -0.132328714
FINAL SINGLE POINT ENERGY     -1041.210179115415
Dispersion correction            ... done
FINAL SINGLE POINT ENERGY     -1041.210134383366
FINAL SINGLE POINT ENERGY     -1041.210788750074
FINAL SINGLE POINT ENERGY     -1041.210857345582
FINAL SINGLE POINT ENERGY     -1041.210872393232
FINAL SINGLE POINT ENERGY     -1041.210881347501
FINAL SINGLE POINT ENERGY     -1041.210883424031
Dispersion correction           -0.133892396
FINAL SINGLE POINT ENERGY     -1041.210884008681
Dispersion correction            ... done
Dispersion correction           -0.133896970
FINAL SINGLE POINT ENERGY     -1041.210883658506
Dispersion correction            ... done
                    ***********************HURRAY********************

CARTESIAN COORDINATES (ANGSTROEM)
---------------------------------
  O      2.517049    1.720998   -1.448582
  N     -1.406386    1.375103    1.053013
  N      1.546222    0.692875    0.267830
  C      1.196092    2.051588    0.825808
  C      0.188739    2.800637   -0.072259
  C      0.659262    1.976721    2.250078
  C     -1.238885    2.694592    0.466858
  C     -0.738549    1.340611    2.347962
  C     -2.782130    0.910272    1.152939
  C     -3.465982    0.694662   -0.202782
  C      1.273731   -0.527871    1.004086
  C      2.186446    0.596017   -0.855714
  C     -2.705964   -0.246530   -1.103337
  C      2.549902   -0.720175   -1.482251
  C      2.134593   -0.892886    2.029097
  C      0.184323   -1.305468    0.654812
  C      3.377301   -0.598994   -2.758231
  C     -2.851699   -1.626434   -0.971041
  C     -1.818078    0.235564   -2.063351
  C      1.879365   -2.059028    2.738493
  C     -0.056981   -2.474116    1.363537
  C      0.782574   -2.846767    2.406901
  C     -2.117558   -2.502994   -1.760721
  C     -1.079621   -0.635502   -2.855804
  C     -1.221182   -2.010359   -2.701879
  H      2.143285    2.593288    0.834651
  H      0.218677    2.395464   -1.082427
  H      0.497210    3.846589   -0.140868
  H      0.614151    3.018390    2.578253
  H      1.357134    1.478046    2.921965
  H     -1.450101    3.491628    1.199253
  H     -1.941246    2.834964   -0.353010
  H     -0.669013    0.302423    2.677762
  H     -1.320515    1.885542    3.109737
  H     -2.755147   -0.045497    1.686625
  H     -3.396866    1.597020    1.758842
  H     -3.620878    1.648954   -0.711024
  H     -4.462492    0.291769   -0.004116
  H      1.610776   -1.245760   -1.676083
  H      3.071371   -1.311911   -0.726276
  H      2.991152   -0.273379    2.272152
  H     -0.470926   -0.986616   -0.142173
  H      3.600763   -1.595938   -3.136942
  H      4.337598   -0.103721   -2.585856
  H      2.834753   -0.078506   -3.554214
  H     -3.554984   -2.019654   -0.242889
  H     -1.717507    1.306586   -2.205351
  H      2.538897   -2.352577    3.546541
  H     -0.908495   -3.089144    1.097648
  H      0.585742   -3.756770    2.961880
  H     -2.254467   -3.573248   -1.650983
  H     -0.414239   -0.239920   -3.617389
  H     -0.661243   -2.693728   -3.330954
  H      2.993892    1.544654   -2.271919

 Multiplicity           Mult            ....    1
 Number of Electrons    NEL             ....  182
 Basis Dimension        Dim             ....  949

ORBITAL ENERGIES
----------------

  NO   OCC          E(Eh)            E(eV)
   0   2.0000     -19.439565      -528.9775
   1   2.0000     -14.628109      -398.0511
   2   2.0000     -14.507029      -394.7563
   3   2.0000     -10.569214      -287.6029
   4   2.0000     -10.455047      -284.4963
   5   2.0000     -10.444285      -284.2034
   6   2.0000     -10.439652      -284.0774
   7   2.0000     -10.414604      -283.3958
   8   2.0000     -10.404211      -283.1130
   9   2.0000     -10.398913      -282.9688
  10   2.0000     -10.398693      -282.9628
  11   2.0000     -10.394713      -282.8545
  12   2.0000     -10.394189      -282.8403
  13   2.0000     -10.394164      -282.8396
  14   2.0000     -10.392834      -282.8034
  15   2.0000     -10.391710      -282.7728
  16   2.0000     -10.391670      -282.7717
  17   2.0000     -10.389090      -282.7015
  18   2.0000     -10.381976      -282.5079
  19   2.0000     -10.378325      -282.4086
  20   2.0000     -10.374265      -282.2981
  21   2.0000     -10.373999      -282.2909
  22   2.0000     -10.373391      -282.2743
  23   2.0000     -10.371117      -282.2124
  24   2.0000     -10.369571      -282.1704
  25   2.0000      -1.413064       -38.4514
  26   2.0000      -1.269257       -34.5382
  27   2.0000      -1.178202       -32.0605
  28   2.0000      -1.121083       -30.5062
  29   2.0000      -1.101349       -29.9692
  30   2.0000      -1.088187       -29.6111
  31   2.0000      -1.058274       -28.7971
  32   2.0000      -1.022927       -27.8353
  33   2.0000      -1.017783       -27.6953
  34   2.0000      -1.006749       -27.3950
  35   2.0000      -1.000611       -27.2280
  36   2.0000      -0.981313       -26.7029
  37   2.0000      -0.966047       -26.2875
  38   2.0000      -0.945106       -25.7176
  39   2.0000      -0.919448       -25.0195
  40   2.0000      -0.899181       -24.4680
  41   2.0000      -0.879069       -23.9207
  42   2.0000      -0.859452       -23.3869
  43   2.0000      -0.851302       -23.1651
  44   2.0000      -0.846393       -23.0315
  45   2.0000      -0.832420       -22.6513
  46   2.0000      -0.812917       -22.1206
  47   2.0000      -0.799865       -21.7654
  48   2.0000      -0.795266       -21.6403
  49   2.0000      -0.780940       -21.2504
  50   2.0000      -0.768585       -20.9143
  51   2.0000      -0.746130       -20.3032
  52   2.0000      -0.740235       -20.1428
  53   2.0000      -0.729047       -19.8384
  54   2.0000      -0.718443       -19.5498
  55   2.0000      -0.704221       -19.1628
  56   2.0000      -0.696807       -18.9611
  57   2.0000      -0.684000       -18.6126
  58   2.0000      -0.682867       -18.5818
  59   2.0000      -0.678065       -18.4511
  60   2.0000      -0.672871       -18.3097
  61   2.0000      -0.667376       -18.1602
  62   2.0000      -0.663308       -18.0495
  63   2.0000      -0.658127       -17.9085
  64   2.0000      -0.650751       -17.7078
  65   2.0000      -0.644473       -17.5370
  66   2.0000      -0.640492       -17.4287
  67   2.0000      -0.636278       -17.3140
  68   2.0000      -0.629133       -17.1196
  69   2.0000      -0.625842       -17.0300
  70   2.0000      -0.619299       -16.8520
  71   2.0000      -0.614083       -16.7100
  72   2.0000      -0.607575       -16.5330
  73   2.0000      -0.601016       -16.3545
  74   2.0000      -0.597121       -16.2485
  75   2.0000      -0.592642       -16.1266
  76   2.0000      -0.579550       -15.7704
  77   2.0000      -0.576939       -15.6993
  78   2.0000      -0.575378       -15.6568
  79   2.0000      -0.567554       -15.4439
  80   2.0000      -0.558710       -15.2033
  81   2.0000      -0.547589       -14.9007
  82   2.0000      -0.543683       -14.7944
  83   2.0000      -0.536787       -14.6067
  84   2.0000      -0.531880       -14.4732
  85   2.0000      -0.523374       -14.2417
  86   2.0000      -0.473462       -12.8836
  87   2.0000      -0.471056       -12.8181
  88   2.0000      -0.452387       -12.3101
  89   2.0000      -0.439183       -11.9508
  90   2.0000      -0.424122       -11.5410
  91   0.0000      -0.085886        -2.3371
  92   0.0000      -0.063044        -1.7155
  93   0.0000      -0.052189        -1.4201
  94   0.0000      -0.040452        -1.1007
  95   0.0000      -0.033838        -0.9208

MULLIKEN ATOMIC CHARGES
-----------------------
   0 O :   -0.311821
   1 N :   -0.153925
   2 N :    0.129863
   3 C :    0.035503
   4 C :   -0.204940
   5 C :   -0.213804
   6 C :   -0.226276
   7 C :   -0.191529
   8 C :   -0.173686
   9 C :   -0.323364
  10 C :    0.019225
  11 C :    0.230069
  12 C :    0.233593
  13 C :   -0.148563
  14 C :   -0.234480
  15 C :   -0.165226
  16 C :   -0.475436
  17 C :   -0.234675
  18 C :   -0.187520
  19 C :   -0.088060
  20 C :   -0.161699
  21 C :   -0.090775
  22 C :   -0.112287
  23 C :   -0.176140
  24 C :   -0.132298
  25 H :    0.142465
  26 H :    0.094900
  27 H :    0.138449
  28 H :    0.145891
  29 H :    0.144209
  30 H :    0.123077
  31 H :    0.131012
  32 H :    0.147223
  33 H :    0.122418
  34 H :    0.121696
  35 H :    0.117809
  36 H :    0.151660
  37 H :    0.147004
  38 H :    0.171346
  39 H :    0.176210
  40 H :    0.151264
  41 H :    0.174981
  42 H :    0.171719
  43 H :    0.166842
  44 H :    0.147844
  45 H :    0.134055
  46 H :    0.129534
  47 H :    0.150106
  48 H :    0.144438
  49 H :    0.150141
  50 H :    0.138595
  51 H :    0.126031
  52 H :    0.133673
  53 H :    0.363657
Sum of atomic charges:    1.0000000

LOEWDIN ATOMIC CHARGES
----------------------
   0 O :    0.209488
   1 N :    0.096635
   2 N :    0.338981
   3 C :   -0.196096
   4 C :   -0.220699
   5 C :   -0.215422
   6 C :   -0.267278
   7 C :   -0.269854
   8 C :   -0.269655
   9 C :   -0.207177
  10 C :   -0.171199
  11 C :   -0.256143
  12 C :   -0.145342
  13 C :   -0.225967
  14 C :   -0.110212
  15 C :   -0.093841
  16 C :   -0.291869
  17 C :   -0.109169
  18 C :   -0.120568
  19 C :   -0.115932
  20 C :   -0.116396
  21 C :   -0.106484
  22 C :   -0.133190
  23 C :   -0.157055
  24 C :   -0.149922
  25 H :    0.159890
  26 H :    0.136287
  27 H :    0.146242
  28 H :    0.156256
  29 H :    0.144928
  30 H :    0.129187
  31 H :    0.134188
  32 H :    0.137210
  33 H :    0.128650
  34 H :    0.138904
  35 H :    0.128935
  36 H :    0.142200
  37 H :    0.152955
  38 H :    0.171774
  39 H :    0.172172
  40 H :    0.153756
  41 H :    0.168023
  42 H :    0.143582
  43 H :    0.128734
  44 H :    0.125514
  45 H :    0.150921
  46 H :    0.144691
  47 H :    0.153637
  48 H :    0.151906
  49 H :    0.153626
  50 H :    0.148461
  51 H :    0.140779
  52 H :    0.145514
  53 H :    0.215448

  Mayer bond orders larger than 0.100000
B(  0-O , 11-C ) :   1.3075 B(  0-O , 53-H ) :   0.8402 B(  1-N ,  6-C ) :   0.9252
B(  1-N ,  7-C ) :   0.9436 B(  1-N ,  8-C ) :   0.9531 B(  2-N ,  3-C ) :   0.8548
B(  2-N , 10-C ) :   0.7876 B(  2-N , 11-C ) :   1.5812 B(  3-C ,  4-C ) :   0.9541
B(  3-C ,  5-C ) :   0.9596 B(  3-C , 25-H ) :   0.9505 B(  4-C ,  6-C ) :   0.9962
B(  4-C , 26-H ) :   0.9765 B(  4-C , 27-H ) :   0.9694 B(  5-C ,  7-C ) :   0.9596
B(  5-C , 28-H ) :   0.9542 B(  5-C , 29-H ) :   0.9786 B(  6-C , 30-H ) :   0.9502
B(  6-C , 31-H ) :   0.9909 B(  7-C , 32-H ) :   0.9890 B(  7-C , 33-H ) :   0.9703
B(  8-C ,  9-C ) :   0.9748 B(  8-C , 34-H ) :   0.9755 B(  8-C , 35-H ) :   0.9659
B(  9-C , 12-C ) :   0.8460 B(  9-C , 36-H ) :   1.0134 B(  9-C , 37-H ) :   0.9802
B( 10-C , 14-C ) :   1.4224 B( 10-C , 15-C ) :   1.4491 B( 11-C , 13-C ) :   1.0105
B( 12-C , 17-C ) :   1.3588 B( 12-C , 18-C ) :   1.3754 B( 13-C , 16-C ) :   0.9400
B( 13-C , 38-H ) :   0.9167 B( 13-C , 39-H ) :   0.9337 B( 14-C , 19-C ) :   1.4309
B( 14-C , 40-H ) :   0.9871 B( 15-C , 20-C ) :   1.4516 B( 15-C , 41-H ) :   0.9450
B( 16-C , 42-H ) :   0.9633 B( 16-C , 43-H ) :   0.9767 B( 16-C , 44-H ) :   0.9659
B( 17-C , 22-C ) :   1.4060 B( 17-C , 45-H ) :   0.9882 B( 18-C , 23-C ) :   1.4163
B( 18-C , 46-H ) :   0.9529 B( 19-C , 21-C ) :   1.4024 B( 19-C , 47-H ) :   0.9678
B( 20-C , 21-C ) :   1.4059 B( 20-C , 48-H ) :   0.9766 B( 21-C , 49-H ) :   0.9701
B( 22-C , 24-C ) :   1.4190 B( 22-C , 50-H ) :   0.9825 B( 23-C , 24-C ) :   1.3995
B( 23-C , 51-H ) :   0.9786 B( 24-C , 52-H ) :   0.9769

Dispersion correction           -0.133901375
FINAL SINGLE POINT ENERGY     -1041.210883681981

DIPOLE MOMENT
-------------
                                X             Y             Z
Electronic contribution:      2.38797      -4.32330       0.28082
Nuclear contribution   :      0.00817       4.63752      -0.71187
                        -----------------------------------------
Total Dipole Moment    :      2.39615       0.31422      -0.43105
                        -----------------------------------------
Magnitude (a.u.)       :      2.45480
Magnitude (Debye)      :      6.23961

Dispersion correction in the Hessian             ... done   (      2.7 sec)

VIBRATIONAL FREQUENCIES
-----------------------

Scaling factor for frequencies =  1.000000000  (already applied!)

   0:         0.00 cm**-1
   1:         0.00 cm**-1
   2:         0.00 cm**-1
   3:         0.00 cm**-1
   4:         0.00 cm**-1
   5:         0.00 cm**-1
   6:        27.25 cm**-1
   7:        36.39 cm**-1
   8:        55.46 cm**-1
   9:        66.23 cm**-1
  10:        74.02 cm**-1
  11:        84.88 cm**-1
  12:        88.24 cm**-1
  13:        95.96 cm**-1
  14:       116.75 cm**-1
  15:       143.21 cm**-1
  16:       152.58 cm**-1
  17:       163.55 cm**-1
  18:       174.27 cm**-1
  19:       222.15 cm**-1
  20:       242.42 cm**-1
  21:       267.78 cm**-1
  22:       280.63 cm**-1
  23:       286.53 cm**-1
  24:       310.41 cm**-1
  25:       321.76 cm**-1
  26:       345.36 cm**-1
  27:       362.08 cm**-1
  28:       398.37 cm**-1
  29:       400.66 cm**-1
  30:       422.16 cm**-1
  31:       429.90 cm**-1
  32:       432.10 cm**-1
  33:       458.31 cm**-1
  34:       474.89 cm**-1
  35:       505.79 cm**-1
  36:       513.78 cm**-1
  37:       522.02 cm**-1
  38:       544.14 cm**-1
  39:       585.67 cm**-1
  40:       604.24 cm**-1
  41:       616.36 cm**-1
  42:       629.92 cm**-1
  43:       639.30 cm**-1
  44:       661.00 cm**-1
  45:       710.45 cm**-1
  46:       729.51 cm**-1
  47:       730.95 cm**-1
  48:       739.27 cm**-1
  49:       780.80 cm**-1
  50:       789.88 cm**-1
  51:       798.93 cm**-1
  52:       803.48 cm**-1
  53:       815.31 cm**-1
  54:       851.59 cm**-1
  55:       861.14 cm**-1
  56:       881.77 cm**-1
  57:       885.80 cm**-1
  58:       918.33 cm**-1
  59:       936.45 cm**-1
  60:       945.79 cm**-1
  61:       965.04 cm**-1
  62:       973.87 cm**-1
  63:       977.83 cm**-1
  64:      1001.50 cm**-1
  65:      1015.00 cm**-1
  66:      1016.00 cm**-1
  67:      1022.74 cm**-1
  68:      1029.80 cm**-1
  69:      1032.32 cm**-1
  70:      1036.28 cm**-1
  71:      1039.04 cm**-1
  72:      1039.64 cm**-1
  73:      1045.74 cm**-1
  74:      1055.93 cm**-1
  75:      1068.61 cm**-1
  76:      1069.16 cm**-1
  77:      1086.70 cm**-1
  78:      1110.39 cm**-1
  79:      1115.92 cm**-1
  80:      1117.83 cm**-1
  81:      1119.06 cm**-1
  82:      1136.11 cm**-1
  83:      1149.02 cm**-1
  84:      1170.00 cm**-1
  85:      1181.57 cm**-1
  86:      1186.11 cm**-1
  87:      1199.49 cm**-1
  88:      1204.52 cm**-1
  89:      1211.58 cm**-1
  90:      1229.50 cm**-1
  91:      1236.73 cm**-1
  92:      1247.84 cm**-1
  93:      1267.31 cm**-1
  94:      1284.67 cm**-1
  95:      1289.89 cm**-1
  96:      1299.15 cm**-1
  97:      1308.61 cm**-1
  98:      1316.56 cm**-1
  99:      1317.83 cm**-1
 100:      1326.51 cm**-1
 101:      1337.31 cm**-1
 102:      1352.55 cm**-1
 103:      1360.66 cm**-1
 104:      1370.15 cm**-1
 105:      1375.46 cm**-1
 106:      1386.28 cm**-1
 107:      1390.33 cm**-1
 108:      1404.82 cm**-1
 109:      1407.27 cm**-1
 110:      1424.06 cm**-1
 111:      1424.69 cm**-1
 112:      1432.62 cm**-1
 113:      1450.72 cm**-1
 114:      1454.19 cm**-1
 115:      1482.51 cm**-1
 116:      1488.95 cm**-1
 117:      1500.99 cm**-1
 118:      1504.05 cm**-1
 119:      1506.55 cm**-1
 120:      1510.07 cm**-1
 121:      1511.70 cm**-1
 122:      1517.11 cm**-1
 123:      1519.92 cm**-1
 124:      1525.66 cm**-1
 125:      1540.45 cm**-1
 126:      1551.34 cm**-1
 127:      1554.79 cm**-1
 128:      1668.61 cm**-1
 129:      1680.16 cm**-1
 130:      1682.28 cm**-1
 131:      1691.86 cm**-1
 132:      1729.62 cm**-1
 133:      2979.29 cm**-1
 134:      2981.11 cm**-1
 135:      2985.65 cm**-1
 136:      3057.17 cm**-1
 137:      3081.61 cm**-1
 138:      3090.09 cm**-1
 139:      3095.02 cm**-1
 140:      3095.68 cm**-1
 141:      3097.70 cm**-1
 142:      3116.17 cm**-1
 143:      3118.73 cm**-1
 144:      3120.01 cm**-1
 145:      3129.05 cm**-1
 146:      3141.70 cm**-1
 147:      3151.87 cm**-1
 148:      3153.89 cm**-1
 149:      3162.93 cm**-1
 150:      3165.92 cm**-1
 151:      3182.70 cm**-1
 152:      3188.77 cm**-1
 153:      3202.58 cm**-1
 154:      3205.36 cm**-1
 155:      3207.71 cm**-1
 156:      3214.21 cm**-1
 157:      3220.94 cm**-1
 158:      3226.06 cm**-1
 159:      3234.47 cm**-1
 160:      3276.18 cm**-1
 161:      3786.62 cm**-1

IR SPECTRUM
-----------

 Mode   freq       eps      Int      T**2         TX        TY        TZ
       cm**-1   L/(mol*cm) km/mol    a.u.
----------------------------------------------------------------------------
  6:     27.25   0.000327    1.65  0.003740  (-0.057897 -0.019287  0.004047)
  7:     36.39   0.000051    0.26  0.000437  (-0.011033 -0.016842 -0.005646)
  8:     55.46   0.000110    0.56  0.000619  (-0.005669  0.022263 -0.009550)
  9:     66.23   0.000242    1.22  0.001138  ( 0.033656  0.001949  0.001173)
 10:     74.02   0.000278    1.40  0.001172  ( 0.029595 -0.000597  0.017192)
 11:     84.88   0.000088    0.44  0.000323  ( 0.017551 -0.000490  0.003833)
 12:     88.24   0.000045    0.23  0.000159  (-0.001742  0.008775 -0.008891)
 13:     95.96   0.000009    0.05  0.000030  ( 0.002339 -0.003327  0.003724)
 14:    116.75   0.000243    1.23  0.000651  ( 0.023108 -0.005333  0.009401)
 15:    143.21   0.000184    0.93  0.000400  (-0.000588 -0.008408 -0.018133)
 16:    152.58   0.000260    1.31  0.000531  ( 0.022951  0.001248  0.001704)
 17:    163.55   0.000173    0.88  0.000330  (-0.011471 -0.009530 -0.010397)
 18:    174.27   0.000012    0.06  0.000021  ( 0.003135  0.002241  0.002556)
 19:    222.15   0.000177    0.90  0.000249  (-0.010530  0.007477 -0.009060)
 20:    242.42   0.000056    0.28  0.000072  (-0.001760  0.004116  0.007228)
 21:    267.78   0.000126    0.64  0.000147  (-0.011720  0.001889 -0.002465)
 22:    280.63   0.000194    0.98  0.000216  (-0.007684  0.006372  0.010795)
 23:    286.53   0.000366    1.85  0.000399  ( 0.004531 -0.013669 -0.013845)
 24:    310.41   0.000032    0.16  0.000032  (-0.000984 -0.004902 -0.002644)
 25:    321.76   0.000293    1.48  0.000284  (-0.009047 -0.012096  0.007478)
 26:    345.36   0.000060    0.30  0.000055  (-0.002363 -0.004251  0.005557)
 27:    362.08   0.000354    1.79  0.000305  (-0.011642  0.012553  0.003430)
 28:    398.37   0.000778    3.93  0.000609  ( 0.017119 -0.005964 -0.016758)
 29:    400.66   0.000599    3.03  0.000467  ( 0.001492 -0.020907  0.005226)
 30:    422.16   0.000005    0.02  0.000004  (-0.001815 -0.000526  0.000043)
 31:    429.90   0.000065    0.33  0.000047  (-0.005846  0.003481  0.000867)
 32:    432.10   0.000036    0.18  0.000026  (-0.002686  0.004132 -0.001213)
 33:    458.31   0.000098    0.50  0.000067  ( 0.007081 -0.001448 -0.003820)
 34:    474.89   0.000153    0.78  0.000101  (-0.001633  0.009060 -0.004010)
 35:    505.79   0.001007    5.09  0.000621  (-0.017237 -0.002423 -0.017842)
 36:    513.78   0.001151    5.82  0.000699  (-0.011512 -0.009138 -0.021982)
 37:    522.02   0.003314   16.75  0.001981  (-0.044140  0.005465 -0.001754)
 38:    544.14   0.010434   52.73  0.005984  ( 0.067778 -0.003662  0.037101)
 39:    585.67   0.002357   11.91  0.001256  ( 0.006242 -0.032490 -0.012700)
 40:    604.24   0.004760   24.05  0.002458  ( 0.042744  0.010690  0.022736)
 41:    616.36   0.001044    5.28  0.000528  ( 0.012548  0.010656 -0.016047)
 42:    629.92   0.000404    2.04  0.000200  ( 0.005632  0.012388 -0.003847)
 43:    639.30   0.000022    0.11  0.000011  (-0.002768 -0.001436  0.000973)
 44:    661.00   0.000586    2.96  0.000277  (-0.009353  0.012481 -0.005767)
 45:    710.45   0.001879    9.50  0.000825  ( 0.009383 -0.015110 -0.022560)
 46:    729.51   0.009581   48.42  0.004098  ( 0.055826 -0.006716  0.030606)
 47:    730.95   0.005660   28.60  0.002416  ( 0.010284 -0.028393 -0.038788)
 48:    739.27   0.000282    1.43  0.000119  (-0.004528 -0.004555  0.008832)
 49:    780.80   0.006166   31.16  0.002464  (-0.038171  0.005478 -0.031263)
 50:    789.88   0.000803    4.06  0.000317  ( 0.009266  0.011972  0.009382)
 51:    798.93   0.002378   12.02  0.000929  (-0.025005 -0.006407 -0.016199)
 52:    803.48   0.006275   31.71  0.002437  (-0.019183  0.021212  0.040241)
 53:    815.31   0.002328   11.76  0.000891  (-0.029346  0.005407 -0.000764)
 54:    851.59   0.000384    1.94  0.000141  ( 0.009496  0.007075 -0.000700)
 55:    861.14   0.000383    1.93  0.000139  ( 0.003801  0.009237 -0.006243)
 56:    881.77   0.000152    0.77  0.000054  (-0.006492  0.002179  0.002645)
 57:    885.80   0.000117    0.59  0.000041  ( 0.003437  0.002620 -0.004735)
 58:    918.33   0.000478    2.42  0.000162  (-0.004069 -0.010010  0.006758)
 59:    936.45   0.002369   11.97  0.000789  ( 0.008207  0.026422 -0.004886)
 60:    945.79   0.000740    3.74  0.000244  (-0.005590 -0.007696  0.012395)
 61:    965.04   0.000691    3.49  0.000223  (-0.005056  0.012020 -0.007303)
 62:    973.87   0.000728    3.68  0.000233  ( 0.004199  0.014493 -0.002342)
 63:    977.83   0.001393    7.04  0.000445  ( 0.009211  0.016252  0.009777)
 64:   1001.50   0.000119    0.60  0.000037  ( 0.004809  0.003750  0.000197)
 65:   1015.00   0.000690    3.49  0.000212  (-0.006457  0.002488  0.012813)
 66:   1016.00   0.002861   14.46  0.000879  (-0.011049  0.008507  0.026162)
 67:   1022.74   0.000125    0.63  0.000038  (-0.005142  0.000208  0.003410)
 68:   1029.80   0.000198    1.00  0.000060  ( 0.005433  0.004715  0.002898)
 69:   1032.32   0.002538   12.83  0.000767  (-0.011909 -0.024829  0.003008)
 70:   1036.28   0.001734    8.76  0.000522  (-0.003045  0.020367 -0.009906)
 71:   1039.04   0.000282    1.43  0.000085  (-0.008389 -0.000328 -0.003786)
 72:   1039.64   0.000190    0.96  0.000057  (-0.007410  0.001368 -0.000499)
 73:   1045.74   0.000052    0.26  0.000015  (-0.000151 -0.003890 -0.000465)
 74:   1055.93   0.000824    4.16  0.000244  (-0.015089 -0.001081  0.003829)
 75:   1068.61   0.000229    1.16  0.000067  (-0.000311  0.007733 -0.002659)
 76:   1069.16   0.000821    4.15  0.000240  (-0.009774  0.010007  0.006632)
 77:   1086.70   0.000720    3.64  0.000207  ( 0.007707 -0.002312 -0.011921)
 78:   1110.39   0.000010    0.05  0.000003  (-0.000281 -0.001601 -0.000549)
 79:   1115.92   0.000323    1.63  0.000090  ( 0.001567  0.008311 -0.004333)
 80:   1117.83   0.001726    8.72  0.000482  ( 0.018342  0.005799  0.010571)
 81:   1119.06   0.000513    2.59  0.000143  (-0.009019 -0.002650 -0.007401)
 82:   1136.11   0.002302   11.63  0.000632  ( 0.014623 -0.008689 -0.018516)
 83:   1149.02   0.003660   18.49  0.000994  (-0.028673  0.012458  0.004078)
 84:   1170.00   0.002095   10.58  0.000559  ( 0.006333 -0.006099  0.021940)
 85:   1181.57   0.000500    2.53  0.000132  ( 0.006704 -0.002153  0.009079)
 86:   1186.11   0.000249    1.26  0.000065  ( 0.005922  0.005383 -0.001195)
 87:   1199.49   0.004587   23.18  0.001193  (-0.025765 -0.022874 -0.002529)
 88:   1204.52   0.000114    0.58  0.000030  (-0.003964  0.003245 -0.001807)
 89:   1211.58   0.000092    0.46  0.000024  (-0.004268 -0.000132  0.002329)
 90:   1229.50   0.008328   42.09  0.002114  (-0.027793 -0.033711  0.014315)
 91:   1236.73   0.003242   16.38  0.000818  ( 0.006836  0.016646 -0.022229)
 92:   1247.84   0.000153    0.77  0.000038  ( 0.003833  0.000612  0.004805)
 93:   1267.31   0.002872   14.51  0.000707  (-0.003533 -0.020034  0.017125)
 94:   1284.67   0.000059    0.30  0.000014  ( 0.003624 -0.000825  0.000789)
 95:   1289.89   0.006267   31.67  0.001516  (-0.009937  0.033463  0.017253)
 96:   1299.15   0.004926   24.89  0.001183  ( 0.003269  0.030851 -0.014859)
 97:   1308.61   0.000278    1.40  0.000066  ( 0.006909  0.001125  0.004152)
 98:   1316.56   0.000894    4.52  0.000212  ( 0.006327  0.012915  0.002228)
 99:   1317.83   0.001188    6.00  0.000281  (-0.010765  0.009944 -0.008156)
100:   1326.51   0.000639    3.23  0.000150  ( 0.000869 -0.008095  0.009165)
101:   1337.31   0.000744    3.76  0.000174  ( 0.010677  0.003637 -0.006807)
102:   1352.55   0.002562   12.95  0.000591  (-0.008006  0.017972  0.014287)
103:   1360.66   0.000610    3.08  0.000140  ( 0.004336  0.007679  0.007886)
104:   1370.15   0.000241    1.22  0.000055  (-0.002845  0.002774 -0.006260)
105:   1375.46   0.001671    8.45  0.000379  ( 0.003944 -0.018917 -0.002401)
106:   1386.28   0.000920    4.65  0.000207  ( 0.009761 -0.006805  0.008094)
107:   1390.33   0.000458    2.31  0.000103  (-0.006295  0.007933  0.000495)
108:   1404.82   0.003535   17.86  0.000785  ( 0.020981  0.016449  0.008631)
109:   1407.27   0.000768    3.88  0.000170  ( 0.001269  0.011160 -0.006640)
110:   1424.06   0.002709   13.69  0.000594  ( 0.019628  0.003832  0.013918)
111:   1424.69   0.005232   26.44  0.001146  ( 0.002338 -0.032697  0.008449)
112:   1432.62   0.009535   48.19  0.002077  (-0.027525 -0.014200  0.033433)
113:   1450.72   0.014716   74.37  0.003165  ( 0.013387  0.048590 -0.025004)
114:   1454.19   0.000227    1.15  0.000049  (-0.002030 -0.006495 -0.001580)
115:   1482.51   0.016717   84.48  0.003519  (-0.024125 -0.048390  0.024398)
116:   1488.95   0.000886    4.48  0.000186  ( 0.004724  0.005129  0.011704)
117:   1500.99   0.001476    7.46  0.000307  (-0.007350 -0.009289 -0.012907)
118:   1504.05   0.001759    8.89  0.000365  ( 0.010527 -0.004343  0.015339)
119:   1506.55   0.001996   10.09  0.000413  (-0.013984 -0.014623  0.002009)
120:   1510.07   0.000580    2.93  0.000120  ( 0.002813  0.006647 -0.008227)
121:   1511.70   0.003315   16.75  0.000684  ( 0.015116 -0.000217  0.021349)
122:   1517.11   0.003935   19.89  0.000809  ( 0.016747 -0.019923  0.011491)
123:   1519.92   0.003178   16.06  0.000653  ( 0.009961  0.022375  0.007261)
124:   1525.66   0.001229    6.21  0.000251  ( 0.000751 -0.014242  0.006934)
125:   1540.45   0.004025   20.34  0.000815  ( 0.019443 -0.013083 -0.016315)
126:   1551.34   0.005672   28.67  0.001141  ( 0.000724  0.029949 -0.015608)
127:   1554.79   0.002165   10.94  0.000434  ( 0.007306 -0.012818 -0.014722)
128:   1668.61   0.000129    0.65  0.000024  (-0.000405  0.004788 -0.000985)
129:   1680.16   0.000190    0.96  0.000035  ( 0.005309  0.001641  0.002095)
130:   1682.28   0.003295   16.65  0.000611  (-0.016705 -0.002124  0.018100)
131:   1691.86   0.000931    4.71  0.000172  (-0.002956  0.010301  0.007545)
132:   1729.62   0.053706  271.41  0.009690  (-0.052514  0.004663  0.083129)
133:   2979.29   0.004490   22.69  0.000470  ( 0.004640  0.020157  0.006518)
134:   2981.11   0.002861   14.46  0.000299  (-0.001105  0.011012 -0.013303)
135:   2985.65   0.031550  159.44  0.003298  (-0.032338  0.028943  0.037605)
136:   3057.17   0.001522    7.69  0.000155  (-0.003542 -0.009581  0.007141)
137:   3081.61   0.001162    5.87  0.000118  (-0.002923 -0.009446  0.004461)
138:   3090.09   0.004698   23.74  0.000474  ( 0.015921 -0.014797  0.001412)
139:   3095.02   0.001448    7.32  0.000146  (-0.002749 -0.010757 -0.004766)
140:   3095.68   0.001071    5.41  0.000108  ( 0.002870  0.004053  0.009128)
141:   3097.70   0.001848    9.34  0.000186  (-0.000954 -0.006417  0.012004)
142:   3116.17   0.001387    7.01  0.000139  (-0.006123  0.009551 -0.003188)
143:   3118.73   0.004321   21.84  0.000432  ( 0.011680  0.016963 -0.002868)
144:   3120.01   0.002159   10.91  0.000216  (-0.013812  0.000668 -0.004975)
145:   3129.05   0.002199   11.11  0.000219  (-0.007233 -0.012498  0.003281)
146:   3141.70   0.000004    0.02  0.000000  (-0.000347 -0.000114 -0.000505)
147:   3151.87   0.003618   18.28  0.000358  (-0.008878  0.015061 -0.007250)
148:   3153.89   0.001876    9.48  0.000186  (-0.007510  0.007074 -0.008898)
149:   3162.93   0.003931   19.87  0.000388  (-0.004463 -0.008943 -0.016970)
150:   3165.92   0.000167    0.84  0.000016  ( 0.000197 -0.004048 -0.000071)
151:   3182.70   0.001019    5.15  0.000100  ( 0.007357 -0.001354 -0.006634)
152:   3188.77   0.000275    1.39  0.000027  ( 0.003362  0.000448 -0.003929)
153:   3202.58   0.001356    6.85  0.000132  ( 0.002710 -0.010818 -0.002790)
154:   3205.36   0.000214    1.08  0.000021  ( 0.001211  0.004280 -0.001039)
155:   3207.71   0.003089   15.61  0.000300  (-0.008561 -0.011994  0.009129)
156:   3214.21   0.000292    1.48  0.000028  ( 0.001083 -0.003876  0.003484)
157:   3220.94   0.000864    4.37  0.000084  ( 0.003172 -0.006838 -0.005183)
158:   3226.06   0.000700    3.54  0.000068  ( 0.006792  0.002880  0.003639)
159:   3234.47   0.000293    1.48  0.000028  (-0.001354 -0.004505  0.002477)
160:   3276.18   0.005675   28.68  0.000541  ( 0.017917  0.001416  0.014748)
161:   3786.62   0.049028  247.77  0.004041  ( 0.035743  0.000144 -0.052564)

--------------------------
THERMOCHEMISTRY AT 298.15K
--------------------------

Temperature         ... 298.15 K
Pressure            ... 1.00 atm
Total Mass          ... 337.49 AMU

Throughout the following assumptions are being made:
  (1) The electronic state is orbitally nondegenerate
  (2) There are no thermally accessible electronically excited states
  (3) Hindered rotations indicated by low frequency modes are not
      treated as such but are treated as vibrations and this may
      cause some error
  (4) All equations used are the standard statistical mechanics
      equations for an ideal gas
  (5) All vibrations are strictly harmonic

freq.      27.25  E(vib)   ...       0.55
freq.      36.39  E(vib)   ...       0.54
freq.      55.46  E(vib)   ...       0.52
freq.      66.23  E(vib)   ...       0.50
freq.      74.02  E(vib)   ...       0.49
freq.      84.88  E(vib)   ...       0.48
freq.      88.24  E(vib)   ...       0.48
freq.      95.96  E(vib)   ...       0.47
freq.     116.75  E(vib)   ...       0.44
freq.     143.21  E(vib)   ...       0.41
freq.     152.58  E(vib)   ...       0.40
freq.     163.55  E(vib)   ...       0.39
freq.     174.27  E(vib)   ...       0.38
freq.     222.15  E(vib)   ...       0.33
freq.     242.42  E(vib)   ...       0.31
freq.     267.78  E(vib)   ...       0.29
freq.     280.63  E(vib)   ...       0.28
freq.     286.53  E(vib)   ...       0.27
freq.     310.41  E(vib)   ...       0.26
freq.     321.76  E(vib)   ...       0.25
freq.     345.36  E(vib)   ...       0.23
freq.     362.08  E(vib)   ...       0.22
freq.     398.37  E(vib)   ...       0.20
freq.     400.66  E(vib)   ...       0.19
freq.     422.16  E(vib)   ...       0.18
freq.     429.90  E(vib)   ...       0.18
freq.     432.10  E(vib)   ...       0.18
freq.     458.31  E(vib)   ...       0.16
freq.     474.89  E(vib)   ...       0.15
freq.     505.79  E(vib)   ...       0.14
freq.     513.78  E(vib)   ...       0.13
freq.     522.02  E(vib)   ...       0.13
freq.     544.14  E(vib)   ...       0.12
freq.     585.67  E(vib)   ...       0.11
freq.     604.24  E(vib)   ...       0.10
freq.     616.36  E(vib)   ...       0.09
freq.     629.92  E(vib)   ...       0.09
freq.     639.30  E(vib)   ...       0.09
freq.     661.00  E(vib)   ...       0.08
freq.     710.45  E(vib)   ...       0.07
freq.     729.51  E(vib)   ...       0.06
freq.     730.95  E(vib)   ...       0.06
freq.     739.27  E(vib)   ...       0.06
freq.     780.80  E(vib)   ...       0.05
freq.     789.88  E(vib)   ...       0.05
freq.     798.93  E(vib)   ...       0.05
freq.     803.48  E(vib)   ...       0.05
freq.     815.31  E(vib)   ...       0.05
freq.     851.59  E(vib)   ...       0.04
freq.     861.14  E(vib)   ...       0.04
freq.     881.77  E(vib)   ...       0.04
freq.     885.80  E(vib)   ...       0.04
freq.     918.33  E(vib)   ...       0.03
freq.     936.45  E(vib)   ...       0.03
freq.     945.79  E(vib)   ...       0.03
freq.     965.04  E(vib)   ...       0.03
freq.     973.87  E(vib)   ...       0.03
freq.     977.83  E(vib)   ...       0.03
freq.    1001.50  E(vib)   ...       0.02
freq.    1015.00  E(vib)   ...       0.02
freq.    1016.00  E(vib)   ...       0.02
freq.    1022.74  E(vib)   ...       0.02
freq.    1029.80  E(vib)   ...       0.02
freq.    1032.32  E(vib)   ...       0.02
freq.    1036.28  E(vib)   ...       0.02
freq.    1039.04  E(vib)   ...       0.02
freq.    1039.64  E(vib)   ...       0.02
freq.    1045.74  E(vib)   ...       0.02
freq.    1055.93  E(vib)   ...       0.02
freq.    1068.61  E(vib)   ...       0.02
freq.    1069.16  E(vib)   ...       0.02
freq.    1086.70  E(vib)   ...       0.02
freq.    1110.39  E(vib)   ...       0.02
freq.    1115.92  E(vib)   ...       0.01
freq.    1117.83  E(vib)   ...       0.01
freq.    1119.06  E(vib)   ...       0.01
freq.    1136.11  E(vib)   ...       0.01
freq.    1149.02  E(vib)   ...       0.01
freq.    1170.00  E(vib)   ...       0.01
freq.    1181.57  E(vib)   ...       0.01
freq.    1186.11  E(vib)   ...       0.01
freq.    1199.49  E(vib)   ...       0.01
freq.    1204.52  E(vib)   ...       0.01
freq.    1211.58  E(vib)   ...       0.01
freq.    1229.50  E(vib)   ...       0.01
freq.    1236.73  E(vib)   ...       0.01
freq.    1247.84  E(vib)   ...       0.01
freq.    1267.31  E(vib)   ...       0.01
freq.    1284.67  E(vib)   ...       0.01
freq.    1289.89  E(vib)   ...       0.01
freq.    1299.15  E(vib)   ...       0.01
freq.    1308.61  E(vib)   ...       0.01
freq.    1316.56  E(vib)   ...       0.01
freq.    1317.83  E(vib)   ...       0.01
freq.    1326.51  E(vib)   ...       0.01
freq.    1337.31  E(vib)   ...       0.01
freq.    1352.55  E(vib)   ...       0.01
freq.    1360.66  E(vib)   ...       0.01
freq.    1370.15  E(vib)   ...       0.01
freq.    1375.46  E(vib)   ...       0.01
freq.    1386.28  E(vib)   ...       0.00
freq.    1390.33  E(vib)   ...       0.00
freq.    1404.82  E(vib)   ...       0.00
freq.    1407.27  E(vib)   ...       0.00
freq.    1424.06  E(vib)   ...       0.00
freq.    1424.69  E(vib)   ...       0.00
freq.    1432.62  E(vib)   ...       0.00
freq.    1450.72  E(vib)   ...       0.00
freq.    1454.19  E(vib)   ...       0.00
freq.    1482.51  E(vib)   ...       0.00
freq.    1488.95  E(vib)   ...       0.00
freq.    1500.99  E(vib)   ...       0.00
freq.    1504.05  E(vib)   ...       0.00
freq.    1506.55  E(vib)   ...       0.00
freq.    1510.07  E(vib)   ...       0.00
freq.    1511.70  E(vib)   ...       0.00
freq.    1517.11  E(vib)   ...       0.00
freq.    1519.92  E(vib)   ...       0.00
freq.    1525.66  E(vib)   ...       0.00
freq.    1540.45  E(vib)   ...       0.00
freq.    1551.34  E(vib)   ...       0.00
freq.    1554.79  E(vib)   ...       0.00
freq.    1668.61  E(vib)   ...       0.00
freq.    1680.16  E(vib)   ...       0.00
freq.    1682.28  E(vib)   ...       0.00
freq.    1691.86  E(vib)   ...       0.00
freq.    1729.62  E(vib)   ...       0.00
freq.    2979.29  E(vib)   ...       0.00
freq.    2981.11  E(vib)   ...       0.00
freq.    2985.65  E(vib)   ...       0.00
freq.    3057.17  E(vib)   ...       0.00
freq.    3081.61  E(vib)   ...       0.00
freq.    3090.09  E(vib)   ...       0.00
freq.    3095.02  E(vib)   ...       0.00
freq.    3095.68  E(vib)   ...       0.00
freq.    3097.70  E(vib)   ...       0.00
freq.    3116.17  E(vib)   ...       0.00
freq.    3118.73  E(vib)   ...       0.00
freq.    3120.01  E(vib)   ...       0.00
freq.    3129.05  E(vib)   ...       0.00
freq.    3141.70  E(vib)   ...       0.00
freq.    3151.87  E(vib)   ...       0.00
freq.    3153.89  E(vib)   ...       0.00
freq.    3162.93  E(vib)   ...       0.00

Rotational constants in cm-1:     0.008609     0.007529     0.006986

                             ****ORCA TERMINATED NORMALLY****
TOTAL RUN TIME: 0 days 8 hours 55 minutes 40 seconds 401 msec
