                         Program Version 5.0.4 -  RELEASE  -
|  1> ! wB97X-D3BJ TightOpt Freq def2-TZVP def2/J RIJCOSX TightSCF defgrid3 CHELPG
|  2> %maxcore 3400
|  3>
|  4> %pal nprocs 8
|  5> end
|  6>
|  7> %chelpg
|  8> grid 0.1
|  9> rmax 3.0
| 10> end
| 11>
| 12> *xyz 1 1
| 13> N          -2.16558500       0.29267600       0.72108900
| 14> N           0.04504000       0.73082300      -0.74417700
| 15> C          -0.84705800       1.95928700      -0.77120600
| 16> C          -2.18850500       1.55263300      -1.37736700
| 17> C          -1.03969100       2.47469400       0.65140500
| 18> C          -3.03732000       0.78308100      -0.34509800
| 19> C          -1.72363300       1.41353200       1.54609500
| 20> C          -2.68573400      -0.84176900       1.47428400
| 21> C          -2.78001800      -2.10579200       0.60335400
| 22> C           1.40579400       0.94888700      -0.25282100
| 23> C          -1.56651900      -2.26240100      -0.28247900
| 24> C           2.31254100       1.60142300      -1.06610400
| 25> C           1.74126800       0.50384200       1.01494300
| 26> C          -0.30566500      -2.49296000       0.27113100
| 27> C          -1.66479300      -2.11779500      -1.66434000
| 28> C           3.59726300       1.81380200      -0.57934200
| 29> C           3.02475400       0.71759400       1.50728700
| 30> C           3.94400200       1.37932400       0.69077900
| 31> C           0.82699600      -2.55136100      -0.53000800
| 32> C          -0.53379300      -2.18039000      -2.47448300
| 33> C           0.71889400      -2.38646500      -1.90790700
| 34> H          -0.33684100       2.69914300      -1.38823900
| 35> H          -2.02296700       0.94628600      -2.27280800
| 36> H          -2.70409800       2.45740600      -1.70335000
| 37> H          -1.65854100       3.37077800       0.57385100
| 38> H          -0.08709300       2.78836200       1.08021700
| 39> H          -3.82542100       1.42769100       0.07064600
| 40> H          -3.53380500      -0.05708800      -0.82555800
| 41> H          -1.01998500       1.03342900       2.28999100
| 42> H          -2.56249300       1.86343600       2.09639700
| 43> H          -1.98720900      -1.02220600       2.29613200
| 44> H          -3.66378600      -0.62321300       1.92705000
| 45> H          -3.68110300      -2.08220200      -0.01290000
| 46> H          -2.88530500      -2.96844400       1.26622200
| 47> H           2.03493100       1.93431000      -2.06082200
| 48> H          -0.21058400      -2.63448700       1.34393700
| 49> H          -2.63957600      -1.96808700      -2.11829400
| 50> H           4.32928200       2.31847300      -1.19867800
| 51> H           4.95067300       1.55021100       1.05747300
| 52> H           1.79711900      -2.73355400      -0.08135300
| 53> H          -0.63554400      -2.08713400      -3.55064700
| 54> H           1.60100800      -2.44628800      -2.53538800
| 55> H          -0.50135800       0.07139000      -0.14368300
| 56> H           0.07491200       0.29643900      -1.66874400
| 57> H           3.30019739       0.38371111       2.48583345
| 58> C           0.70230106      -0.24810145       1.86742687
| 59> H           0.36068272       0.38836756       2.65679631
| 60> H          -0.12674261      -0.53013134       1.25257264
| 61> H           1.15108378      -1.12499460       2.28522165
| 62> *
| 63>
| 64>
| 65>                          ****END OF INPUT****
 Total Charge           Charge          ....    1
 Multiplicity           Mult            ....    1
 Number of Electrons    NEL             ....  160
Dispersion correction           -0.127177801
FINAL SINGLE POINT ENERGY      -888.443319538760
Dispersion correction            ... done
Dispersion correction           -0.121893317
FINAL SINGLE POINT ENERGY      -888.459717947911
Dispersion correction            ... done
Dispersion correction           -0.123037356
FINAL SINGLE POINT ENERGY      -888.464210626684
Dispersion correction            ... done
FINAL SINGLE POINT ENERGY      -888.464749963155
FINAL SINGLE POINT ENERGY      -888.466128222185
FINAL SINGLE POINT ENERGY      -888.466378564702
FINAL SINGLE POINT ENERGY      -888.466678854301
FINAL SINGLE POINT ENERGY      -888.466829175483
FINAL SINGLE POINT ENERGY      -888.466922084427
FINAL SINGLE POINT ENERGY      -888.466991990982
FINAL SINGLE POINT ENERGY      -888.467058951332
FINAL SINGLE POINT ENERGY      -888.467071187940
FINAL SINGLE POINT ENERGY      -888.467078852772
FINAL SINGLE POINT ENERGY      -888.467082425649
FINAL SINGLE POINT ENERGY      -888.467084383248
FINAL SINGLE POINT ENERGY      -888.467085633230
FINAL SINGLE POINT ENERGY      -888.467086251654
Dispersion correction           -0.122581166
FINAL SINGLE POINT ENERGY      -888.467086384850
Dispersion correction            ... done
Dispersion correction           -0.122587140
FINAL SINGLE POINT ENERGY      -888.467085910824
Dispersion correction            ... done
                    ***********************HURRAY********************

CARTESIAN COORDINATES (ANGSTROEM)
---------------------------------
  N     -2.334149    0.243687    0.692140
  N      0.028307    0.714206   -0.547317
  C     -0.832493    1.967921   -0.527178
  C     -2.125898    1.685494   -1.282973
  C     -1.117795    2.363032    0.918605
  C     -3.055310    0.760499   -0.468898
  C     -2.063457    1.347937    1.608661
  C     -2.950491   -0.924711    1.310047
  C     -2.953353   -2.138464    0.363183
  C      1.440202    0.909766   -0.201783
  C     -1.650989   -2.270967   -0.391689
  C      2.243946    1.440789   -1.203797
  C      1.937320    0.576130    1.051840
  C     -0.466286   -2.573375    0.281507
  C     -1.588179   -2.042234   -1.764701
  C      3.587428    1.662034   -0.963190
  C      3.299160    0.807542    1.266155
  C      4.114324    1.343422    0.284199
  C      0.750125   -2.605628   -0.388065
  C     -0.373122   -2.081530   -2.444881
  C      0.803700   -2.349133   -1.754752
  H     -0.246332    2.738118   -1.028686
  H     -1.898134    1.247688   -2.259532
  H     -2.608875    2.644080   -1.480515
  H     -1.570834    3.355613    0.893516
  H     -0.179724    2.468187    1.466578
  H     -3.957301    1.301499   -0.147129
  H     -3.385212   -0.069193   -1.088496
  H     -1.600538    0.947504    2.510869
  H     -2.996467    1.841313    1.917584
  H     -2.360527   -1.161928    2.199859
  H     -3.976027   -0.718416    1.650412
  H     -3.780960   -2.069652   -0.345638
  H     -3.139041   -3.033258    0.962742
  H      1.817099    1.673974   -2.174850
  H     -0.497905   -2.792238    1.344697
  H     -2.501882   -1.846952   -2.317456
  H      4.218938    2.072342   -1.741680
  H      5.166012    1.507423    0.487685
  H      1.659218   -2.842077    0.153851
  H     -0.350622   -1.922729   -3.517971
  H      1.751275   -2.385433   -2.280035
  H     -0.488832    0.053591    0.063900
  H     -0.020442    0.279522   -1.472055
  H      3.720786    0.553216    2.232872
  C      1.109775    0.002491    2.172637
  H      0.875123    0.774183    2.910483
  H      0.173895   -0.441157    1.836783
  H      1.672520   -0.777960    2.686802

 Multiplicity           Mult            ....    1
 Number of Electrons    NEL             ....  160
 Basis Dimension        Dim             ....  844

ORBITAL ENERGIES
----------------

  NO   OCC          E(Eh)            E(eV)
   0   2.0000     -14.648787      -398.6138
   1   2.0000     -14.540818      -395.6758
   2   2.0000     -10.469518      -284.8901
   3   2.0000     -10.454471      -284.4806
   4   2.0000     -10.425111      -283.6817
   5   2.0000     -10.423713      -283.6437
   6   2.0000     -10.422649      -283.6147
   7   2.0000     -10.418950      -283.5141
   8   2.0000     -10.411922      -283.3228
   9   2.0000     -10.410592      -283.2866
  10   2.0000     -10.409466      -283.2560
  11   2.0000     -10.402898      -283.0772
  12   2.0000     -10.398865      -282.9675
  13   2.0000     -10.397821      -282.9391
  14   2.0000     -10.397070      -282.9187
  15   2.0000     -10.396867      -282.9131
  16   2.0000     -10.393972      -282.8344
  17   2.0000     -10.392790      -282.8022
  18   2.0000     -10.391758      -282.7741
  19   2.0000     -10.391267      -282.7608
  20   2.0000     -10.390289      -282.7341
  21   2.0000     -10.389833      -282.7217
  22   2.0000      -1.277191       -34.7541
  23   2.0000      -1.203676       -32.7537
  24   2.0000      -1.130217       -30.7548
  25   2.0000      -1.120184       -30.4817
  26   2.0000      -1.077613       -29.3233
  27   2.0000      -1.044787       -28.4301
  28   2.0000      -1.037500       -28.2318
  29   2.0000      -1.025866       -27.9152
  30   2.0000      -1.006323       -27.3835
  31   2.0000      -0.999691       -27.2030
  32   2.0000      -0.977244       -26.5922
  33   2.0000      -0.951304       -25.8863
  34   2.0000      -0.919756       -25.0278
  35   2.0000      -0.903618       -24.5887
  36   2.0000      -0.876781       -23.8584
  37   2.0000      -0.869781       -23.6679
  38   2.0000      -0.860094       -23.4044
  39   2.0000      -0.849714       -23.1219
  40   2.0000      -0.825991       -22.4764
  41   2.0000      -0.813268       -22.1301
  42   2.0000      -0.804279       -21.8855
  43   2.0000      -0.783726       -21.3263
  44   2.0000      -0.764541       -20.8042
  45   2.0000      -0.746211       -20.3054
  46   2.0000      -0.738068       -20.0839
  47   2.0000      -0.728495       -19.8234
  48   2.0000      -0.712868       -19.3981
  49   2.0000      -0.701004       -19.0753
  50   2.0000      -0.697843       -18.9893
  51   2.0000      -0.694927       -18.9099
  52   2.0000      -0.685136       -18.6435
  53   2.0000      -0.671767       -18.2797
  54   2.0000      -0.668947       -18.2030
  55   2.0000      -0.666896       -18.1472
  56   2.0000      -0.660226       -17.9657
  57   2.0000      -0.653647       -17.7866
  58   2.0000      -0.648971       -17.6594
  59   2.0000      -0.643077       -17.4990
  60   2.0000      -0.636798       -17.3281
  61   2.0000      -0.628872       -17.1125
  62   2.0000      -0.625798       -17.0288
  63   2.0000      -0.619729       -16.8637
  64   2.0000      -0.609224       -16.5778
  65   2.0000      -0.601659       -16.3720
  66   2.0000      -0.597423       -16.2567
  67   2.0000      -0.587689       -15.9918
  68   2.0000      -0.581326       -15.8187
  69   2.0000      -0.577453       -15.7133
  70   2.0000      -0.576760       -15.6944
  71   2.0000      -0.565268       -15.3817
  72   2.0000      -0.560459       -15.2509
  73   2.0000      -0.555579       -15.1181
  74   2.0000      -0.548551       -14.9268
  75   2.0000      -0.481854       -13.1119
  76   2.0000      -0.471466       -12.8292
  77   2.0000      -0.468354       -12.7446
  78   2.0000      -0.462247       -12.5784
  79   2.0000      -0.453967       -12.3531
  80   0.0000      -0.070095        -1.9074
  81   0.0000      -0.061936        -1.6854
  82   0.0000      -0.056763        -1.5446
  83   0.0000      -0.047515        -1.2929
  84   0.0000      -0.022569        -0.6141

MULLIKEN ATOMIC CHARGES
-----------------------
   0 N :   -0.250727
   1 N :   -0.024423
   2 C :    0.067334
   3 C :   -0.263122
   4 C :   -0.277499
   5 C :   -0.146535
   6 C :   -0.185962
   7 C :   -0.185868
   8 C :   -0.304504
   9 C :    0.276104
  10 C :    0.234195
  11 C :   -0.339244
  12 C :   -0.086598
  13 C :   -0.229375
  14 C :   -0.254101
  15 C :   -0.060346
  16 C :   -0.102188
  17 C :   -0.145786
  18 C :   -0.092623
  19 C :   -0.170218
  20 C :   -0.143121
  21 H :    0.165547
  22 H :    0.141414
  23 H :    0.154066
  24 H :    0.149799
  25 H :    0.153549
  26 H :    0.133810
  27 H :    0.124859
  28 H :    0.148199
  29 H :    0.135970
  30 H :    0.134711
  31 H :    0.131459
  32 H :    0.159809
  33 H :    0.157642
  34 H :    0.142695
  35 H :    0.144706
  36 H :    0.146528
  37 H :    0.153323
  38 H :    0.153242
  39 H :    0.139325
  40 H :    0.145801
  41 H :    0.144180
  42 H :    0.178414
  43 H :    0.257729
  44 H :    0.149674
  45 C :   -0.386348
  46 H :    0.160142
  47 H :    0.101647
  48 H :    0.162716
Sum of atomic charges:    1.0000000

LOEWDIN ATOMIC CHARGES
----------------------
   0 N :    0.079542
   1 N :    0.281692
   2 C :   -0.224875
   3 C :   -0.218722
   4 C :   -0.211098
   5 C :   -0.252545
   6 C :   -0.264171
   7 C :   -0.267516
   8 C :   -0.204792
   9 C :   -0.162006
  10 C :   -0.151576
  11 C :   -0.112378
  12 C :   -0.141587
  13 C :   -0.118712
  14 C :   -0.124952
  15 C :   -0.111516
  16 C :   -0.084858
  17 C :   -0.102583
  18 C :   -0.129302
  19 C :   -0.152142
  20 C :   -0.142662
  21 H :    0.160115
  22 H :    0.141301
  23 H :    0.154566
  24 H :    0.154305
  25 H :    0.146908
  26 H :    0.132878
  27 H :    0.136269
  28 H :    0.133404
  29 H :    0.131509
  30 H :    0.135400
  31 H :    0.133578
  32 H :    0.144583
  33 H :    0.155199
  34 H :    0.152989
  35 H :    0.151360
  36 H :    0.149510
  37 H :    0.154812
  38 H :    0.155644
  39 H :    0.150639
  40 H :    0.150374
  41 H :    0.150508
  42 H :    0.208912
  43 H :    0.217687
  44 H :    0.157254
  45 C :   -0.239922
  46 H :    0.136397
  47 H :    0.119836
  48 H :    0.140748

  Mayer bond orders larger than 0.100000
B(  0-N ,  5-C ) :   0.8830 B(  0-N ,  6-C ) :   0.8838 B(  0-N ,  7-C ) :   0.9549
B(  0-N , 42-H ) :   0.1022 B(  1-N ,  2-C ) :   0.8598 B(  1-N ,  9-C ) :   0.8325
B(  1-N , 42-H ) :   0.8659 B(  1-N , 43-H ) :   0.8894 B(  2-C ,  3-C ) :   0.9632
B(  2-C ,  4-C ) :   0.9823 B(  2-C , 21-H ) :   0.9537 B(  3-C ,  5-C ) :   0.9881
B(  3-C , 22-H ) :   0.9695 B(  3-C , 23-H ) :   0.9654 B(  4-C ,  6-C ) :   0.9764
B(  4-C , 24-H ) :   0.9655 B(  4-C , 25-H ) :   0.9720 B(  5-C , 26-H ) :   0.9617
B(  5-C , 27-H ) :   0.9866 B(  6-C , 28-H ) :   0.9912 B(  6-C , 29-H ) :   0.9613
B(  7-C ,  8-C ) :   0.9567 B(  7-C , 30-H ) :   0.9799 B(  7-C , 31-H ) :   0.9724
B(  8-C , 10-C ) :   0.8541 B(  8-C , 32-H ) :   1.0011 B(  8-C , 33-H ) :   0.9811
B(  9-C , 11-C ) :   1.3760 B(  9-C , 12-C ) :   1.3741 B( 10-C , 13-C ) :   1.3058
B( 10-C , 14-C ) :   1.3365 B( 11-C , 12-C ) :   0.1046 B( 11-C , 15-C ) :   1.4704
B( 11-C , 34-H ) :   0.9733 B( 12-C , 16-C ) :   1.3840 B( 12-C , 45-C ) :   0.9367
B( 13-C , 18-C ) :   1.4315 B( 13-C , 35-H ) :   0.9902 B( 14-C , 19-C ) :   1.4090
B( 14-C , 36-H ) :   0.9757 B( 15-C , 17-C ) :   1.3871 B( 15-C , 37-H ) :   0.9622
B( 16-C , 17-C ) :   1.4501 B( 16-C , 44-H ) :   0.9685 B( 17-C , 38-H ) :   0.9657
B( 18-C , 20-C ) :   1.3609 B( 18-C , 39-H ) :   0.9809 B( 19-C , 20-C ) :   1.3907
B( 19-C , 40-H ) :   0.9993 B( 20-C , 41-H ) :   0.9877 B( 45-C , 46-H ) :   0.9650
B( 45-C , 47-H ) :   0.9865 B( 45-C , 48-H ) :   0.9760

Dispersion correction           -0.122579424
FINAL SINGLE POINT ENERGY      -888.467086207573

DIPOLE MOMENT
-------------
                                X             Y             Z
Electronic contribution:      9.52917      -2.83556      -5.00540
Nuclear contribution   :     -9.70825       3.93097       4.97726
                        -----------------------------------------
Total Dipole Moment    :     -0.17908       1.09541      -0.02813
                        -----------------------------------------
Magnitude (a.u.)       :      1.11031
Magnitude (Debye)      :      2.82218

Dispersion correction in the Hessian             ... done   (      2.0 sec)

VIBRATIONAL FREQUENCIES
-----------------------

Scaling factor for frequencies =  1.000000000  (already applied!)

   0:         0.00 cm**-1
   1:         0.00 cm**-1
   2:         0.00 cm**-1
   3:         0.00 cm**-1
   4:         0.00 cm**-1
   5:         0.00 cm**-1
   6:        35.05 cm**-1
   7:        45.92 cm**-1
   8:        53.39 cm**-1
   9:        76.87 cm**-1
  10:        86.43 cm**-1
  11:       102.16 cm**-1
  12:       121.06 cm**-1
  13:       131.16 cm**-1
  14:       155.45 cm**-1
  15:       178.69 cm**-1
  16:       188.75 cm**-1
  17:       213.61 cm**-1
  18:       242.26 cm**-1
  19:       258.76 cm**-1
  20:       280.44 cm**-1
  21:       303.08 cm**-1
  22:       343.17 cm**-1
  23:       363.86 cm**-1
  24:       392.86 cm**-1
  25:       405.44 cm**-1
  26:       427.75 cm**-1
  27:       436.36 cm**-1
  28:       444.54 cm**-1
  29:       472.94 cm**-1
  30:       499.24 cm**-1
  31:       511.05 cm**-1
  32:       518.54 cm**-1
  33:       533.02 cm**-1
  34:       562.75 cm**-1
  35:       616.98 cm**-1
  36:       625.52 cm**-1
  37:       638.28 cm**-1
  38:       726.14 cm**-1
  39:       734.86 cm**-1
  40:       736.89 cm**-1
  41:       775.71 cm**-1
  42:       786.42 cm**-1
  43:       791.41 cm**-1
  44:       793.82 cm**-1
  45:       809.70 cm**-1
  46:       829.46 cm**-1
  47:       845.18 cm**-1
  48:       861.04 cm**-1
  49:       880.23 cm**-1
  50:       897.39 cm**-1
  51:       902.37 cm**-1
  52:       920.22 cm**-1
  53:       942.35 cm**-1
  54:       950.67 cm**-1
  55:       976.64 cm**-1
  56:       987.41 cm**-1
  57:       993.22 cm**-1
  58:      1015.34 cm**-1
  59:      1017.94 cm**-1
  60:      1023.54 cm**-1
  61:      1026.72 cm**-1
  62:      1031.42 cm**-1
  63:      1037.74 cm**-1
  64:      1043.89 cm**-1
  65:      1046.67 cm**-1
  66:      1066.87 cm**-1
  67:      1068.86 cm**-1
  68:      1069.79 cm**-1
  69:      1092.77 cm**-1
  70:      1115.06 cm**-1
  71:      1129.12 cm**-1
  72:      1134.20 cm**-1
  73:      1150.08 cm**-1
  74:      1170.86 cm**-1
  75:      1184.33 cm**-1
  76:      1190.83 cm**-1
  77:      1201.85 cm**-1
  78:      1207.98 cm**-1
  79:      1213.88 cm**-1
  80:      1217.87 cm**-1
  81:      1233.25 cm**-1
  82:      1243.11 cm**-1
  83:      1263.61 cm**-1
  84:      1266.16 cm**-1
  85:      1276.66 cm**-1
  86:      1290.74 cm**-1
  87:      1302.70 cm**-1
  88:      1315.23 cm**-1
  89:      1325.00 cm**-1
  90:      1329.19 cm**-1
  91:      1343.60 cm**-1
  92:      1356.04 cm**-1
  93:      1366.50 cm**-1
  94:      1378.15 cm**-1
  95:      1382.94 cm**-1
  96:      1396.01 cm**-1
  97:      1400.59 cm**-1
  98:      1411.88 cm**-1
  99:      1421.81 cm**-1
 100:      1436.63 cm**-1
 101:      1438.01 cm**-1
 102:      1446.32 cm**-1
 103:      1486.51 cm**-1
 104:      1495.93 cm**-1
 105:      1503.49 cm**-1
 106:      1506.25 cm**-1
 107:      1508.18 cm**-1
 108:      1509.58 cm**-1
 109:      1518.43 cm**-1
 110:      1519.86 cm**-1
 111:      1523.38 cm**-1
 112:      1542.76 cm**-1
 113:      1553.72 cm**-1
 114:      1564.25 cm**-1
 115:      1666.46 cm**-1
 116:      1671.57 cm**-1
 117:      1678.46 cm**-1
 118:      1689.31 cm**-1
 119:      1707.90 cm**-1
 120:      3012.93 cm**-1
 121:      3014.30 cm**-1
 122:      3018.55 cm**-1
 123:      3078.24 cm**-1
 124:      3079.10 cm**-1
 125:      3091.60 cm**-1
 126:      3097.05 cm**-1
 127:      3104.24 cm**-1
 128:      3132.12 cm**-1
 129:      3133.22 cm**-1
 130:      3134.51 cm**-1
 131:      3140.39 cm**-1
 132:      3144.01 cm**-1
 133:      3149.19 cm**-1
 134:      3175.93 cm**-1
 135:      3178.69 cm**-1
 136:      3189.03 cm**-1
 137:      3190.83 cm**-1
 138:      3192.04 cm**-1
 139:      3200.48 cm**-1
 140:      3204.89 cm**-1
 141:      3205.66 cm**-1
 142:      3212.79 cm**-1
 143:      3222.79 cm**-1
 144:      3226.48 cm**-1
 145:      3236.57 cm**-1
 146:      3450.15 cm**-1

--------------------------
THERMOCHEMISTRY AT 298.15K
--------------------------

Temperature         ... 298.15 K
Pressure            ... 1.00 atm
Total Mass          ... 295.45 AMU

Throughout the following assumptions are being made:
  (1) The electronic state is orbitally nondegenerate
  (2) There are no thermally accessible electronically excited states
  (3) Hindered rotations indicated by low frequency modes are not
      treated as such but are treated as vibrations and this may
      cause some error
  (4) All equations used are the standard statistical mechanics
      equations for an ideal gas
  (5) All vibrations are strictly harmonic

freq.      35.05  E(vib)   ...       0.54
freq.      45.92  E(vib)   ...       0.53
freq.      53.39  E(vib)   ...       0.52
freq.      76.87  E(vib)   ...       0.49
freq.      86.43  E(vib)   ...       0.48
freq.     102.16  E(vib)   ...       0.46
freq.     121.06  E(vib)   ...       0.44
freq.     131.16  E(vib)   ...       0.42
freq.     155.45  E(vib)   ...       0.40
freq.     178.69  E(vib)   ...       0.37
freq.     188.75  E(vib)   ...       0.36
freq.     213.61  E(vib)   ...       0.34
freq.     242.26  E(vib)   ...       0.31
freq.     258.76  E(vib)   ...       0.30
freq.     280.44  E(vib)   ...       0.28
freq.     303.08  E(vib)   ...       0.26
freq.     343.17  E(vib)   ...       0.23
freq.     363.86  E(vib)   ...       0.22
freq.     392.86  E(vib)   ...       0.20
freq.     405.44  E(vib)   ...       0.19
freq.     427.75  E(vib)   ...       0.18
freq.     436.36  E(vib)   ...       0.17
freq.     444.54  E(vib)   ...       0.17
freq.     472.94  E(vib)   ...       0.15
freq.     499.24  E(vib)   ...       0.14
freq.     511.05  E(vib)   ...       0.14
freq.     518.54  E(vib)   ...       0.13
freq.     533.02  E(vib)   ...       0.13
freq.     562.75  E(vib)   ...       0.11
freq.     616.98  E(vib)   ...       0.09
freq.     625.52  E(vib)   ...       0.09
freq.     638.28  E(vib)   ...       0.09
freq.     726.14  E(vib)   ...       0.06
freq.     734.86  E(vib)   ...       0.06
freq.     736.89  E(vib)   ...       0.06
freq.     775.71  E(vib)   ...       0.05
freq.     786.42  E(vib)   ...       0.05
freq.     791.41  E(vib)   ...       0.05
freq.     793.82  E(vib)   ...       0.05
freq.     809.70  E(vib)   ...       0.05
freq.     829.46  E(vib)   ...       0.04
freq.     845.18  E(vib)   ...       0.04
freq.     861.04  E(vib)   ...       0.04
freq.     880.23  E(vib)   ...       0.04
freq.     897.39  E(vib)   ...       0.03
freq.     902.37  E(vib)   ...       0.03
freq.     920.22  E(vib)   ...       0.03
freq.     942.35  E(vib)   ...       0.03
freq.     950.67  E(vib)   ...       0.03
freq.     976.64  E(vib)   ...       0.03
freq.     987.41  E(vib)   ...       0.02
freq.     993.22  E(vib)   ...       0.02
freq.    1015.34  E(vib)   ...       0.02
freq.    1017.94  E(vib)   ...       0.02
freq.    1023.54  E(vib)   ...       0.02
freq.    1026.72  E(vib)   ...       0.02
freq.    1031.42  E(vib)   ...       0.02
freq.    1037.74  E(vib)   ...       0.02
freq.    1043.89  E(vib)   ...       0.02
freq.    1046.67  E(vib)   ...       0.02
freq.    1066.87  E(vib)   ...       0.02
freq.    1068.86  E(vib)   ...       0.02
freq.    1069.79  E(vib)   ...       0.02
freq.    1092.77  E(vib)   ...       0.02
freq.    1115.06  E(vib)   ...       0.01
freq.    1129.12  E(vib)   ...       0.01
freq.    1134.20  E(vib)   ...       0.01
freq.    1150.08  E(vib)   ...       0.01
freq.    1170.86  E(vib)   ...       0.01
freq.    1184.33  E(vib)   ...       0.01
freq.    1190.83  E(vib)   ...       0.01
freq.    1201.85  E(vib)   ...       0.01
freq.    1207.98  E(vib)   ...       0.01
freq.    1213.88  E(vib)   ...       0.01
freq.    1217.87  E(vib)   ...       0.01
freq.    1233.25  E(vib)   ...       0.01
freq.    1243.11  E(vib)   ...       0.01
freq.    1263.61  E(vib)   ...       0.01
freq.    1266.16  E(vib)   ...       0.01
freq.    1276.66  E(vib)   ...       0.01
freq.    1290.74  E(vib)   ...       0.01
freq.    1302.70  E(vib)   ...       0.01
freq.    1315.23  E(vib)   ...       0.01
freq.    1325.00  E(vib)   ...       0.01
freq.    1329.19  E(vib)   ...       0.01
freq.    1343.60  E(vib)   ...       0.01
freq.    1356.04  E(vib)   ...       0.01
freq.    1366.50  E(vib)   ...       0.01
freq.    1378.15  E(vib)   ...       0.01
freq.    1382.94  E(vib)   ...       0.01
freq.    1396.01  E(vib)   ...       0.00
freq.    1400.59  E(vib)   ...       0.00
freq.    1411.88  E(vib)   ...       0.00
freq.    1421.81  E(vib)   ...       0.00
freq.    1436.63  E(vib)   ...       0.00
freq.    1438.01  E(vib)   ...       0.00
freq.    1446.32  E(vib)   ...       0.00
freq.    1486.51  E(vib)   ...       0.00
freq.    1495.93  E(vib)   ...       0.00
freq.    1503.49  E(vib)   ...       0.00
freq.    1506.25  E(vib)   ...       0.00
freq.    1508.18  E(vib)   ...       0.00
freq.    1509.58  E(vib)   ...       0.00
freq.    1518.43  E(vib)   ...       0.00
freq.    1519.86  E(vib)   ...       0.00
freq.    1523.38  E(vib)   ...       0.00
freq.    1542.76  E(vib)   ...       0.00
freq.    1553.72  E(vib)   ...       0.00
freq.    1564.25  E(vib)   ...       0.00
freq.    1666.46  E(vib)   ...       0.00
freq.    1671.57  E(vib)   ...       0.00
freq.    1678.46  E(vib)   ...       0.00
freq.    1689.31  E(vib)   ...       0.00
freq.    1707.90  E(vib)   ...       0.00
freq.    3012.93  E(vib)   ...       0.00
freq.    3014.30  E(vib)   ...       0.00
freq.    3018.55  E(vib)   ...       0.00
freq.    3078.24  E(vib)   ...       0.00
freq.    3079.10  E(vib)   ...       0.00
freq.    3091.60  E(vib)   ...       0.00
freq.    3097.05  E(vib)   ...       0.00
freq.    3104.24  E(vib)   ...       0.00
freq.    3132.12  E(vib)   ...       0.00
freq.    3133.22  E(vib)   ...       0.00
freq.    3134.51  E(vib)   ...       0.00
freq.    3140.39  E(vib)   ...       0.00
freq.    3144.01  E(vib)   ...       0.00
freq.    3149.19  E(vib)   ...       0.00
freq.    3175.93  E(vib)   ...       0.00
freq.    3178.69  E(vib)   ...       0.00
freq.    3189.03  E(vib)   ...       0.00
freq.    3190.83  E(vib)   ...       0.00
freq.    3192.04  E(vib)   ...       0.00
freq.    3200.48  E(vib)   ...       0.00
freq.    3204.89  E(vib)   ...       0.00
freq.    3205.66  E(vib)   ...       0.00
freq.    3212.79  E(vib)   ...       0.00
freq.    3222.79  E(vib)   ...       0.00
freq.    3226.48  E(vib)   ...       0.00
freq.    3236.57  E(vib)   ...       0.00
freq.    3450.15  E(vib)   ...       0.00

------------
INNER ENERGY

Rotational constants in cm-1:     0.014078     0.008788     0.007323

                             ****ORCA TERMINATED NORMALLY****
TOTAL RUN TIME: 0 days 8 hours 34 minutes 13 seconds 289 msec
