                         Program Version 5.0.4 -  RELEASE  -
|  1> ! wB97X-D3BJ TightOpt Freq def2-TZVP def2/J RIJCOSX TightSCF defgrid3 CHELPG
|  2> %maxcore 3400
|  3>
|  4> %pal nprocs 8
|  5> end
|  6>
|  7> %chelpg
|  8> grid 0.1
|  9> rmax 3.0
| 10> end
| 11>
| 12> *xyz 1 1
| 13> N          -2.16558500       0.29267600       0.72108900
| 14> N           0.04504000       0.73082300      -0.74417700
| 15> C          -0.84705800       1.95928700      -0.77120600
| 16> C          -2.18850500       1.55263300      -1.37736700
| 17> C          -1.03969100       2.47469400       0.65140500
| 18> C          -3.03732000       0.78308100      -0.34509800
| 19> C          -1.72363300       1.41353200       1.54609500
| 20> C          -2.68573400      -0.84176900       1.47428400
| 21> C          -2.78001800      -2.10579200       0.60335400
| 22> C           1.40579400       0.94888700      -0.25282100
| 23> C          -1.56651900      -2.26240100      -0.28247900
| 24> C           1.63671300       0.91716739       1.10919694
| 25> C           2.42222336       1.17076327      -1.16686459
| 26> C          -0.30566500      -2.49296000       0.27113100
| 27> C          -1.66479300      -2.11779500      -1.66434000
| 28> C           2.93741498       1.11177730       1.55959017
| 29> C           3.72588238       1.36233023      -0.72054173
| 30> C           3.96526535       1.32807902       0.65463514
| 31> C           0.82699600      -2.55136100      -0.53000800
| 32> C          -0.53379300      -2.18039000      -2.47448300
| 33> C           0.71889400      -2.38646500      -1.90790700
| 34> H          -0.33684100       2.69914300      -1.38823900
| 35> H          -2.02296700       0.94628600      -2.27280800
| 36> H          -2.70409800       2.45740600      -1.70335000
| 37> H          -1.65854100       3.37077800       0.57385100
| 38> H          -0.08709300       2.78836200       1.08021700
| 39> H          -3.82542100       1.42769100       0.07064600
| 40> H          -3.53380500      -0.05708800      -0.82555800
| 41> H          -1.01998500       1.03342900       2.28999100
| 42> H          -2.56249300       1.86343600       2.09639700
| 43> H          -1.98720900      -1.02220600       2.29613200
| 44> H          -3.66378600      -0.62321300       1.92705000
| 45> H          -3.68110300      -2.08220200      -0.01290000
| 46> H          -2.88530500      -2.96844400       1.26622200
| 47> H           0.82617871       0.75197254       1.81140047
| 48> H          -0.21058400      -2.63448700       1.34393700
| 49> H          -2.63957600      -1.96808700      -2.11829400
| 50> H           3.14507962       1.09689889       2.62296956
| 51> H           4.97543464       1.48012774       1.02000146
| 52> H           1.79711900      -2.73355400      -0.08135300
| 53> H          -0.63554400      -2.08713400      -3.55064700
| 54> H           1.60100800      -2.44628800      -2.53538800
| 55> H          -0.50135800       0.07139000      -0.14368300
| 56> H           0.07491200       0.29643900      -1.66874400
| 57> H           4.52403738       1.53145097      -1.41281825
| 58> C           2.10481377       1.22996110      -2.67263575
| 59> H           2.46431648       0.34138469      -3.14812472
| 60> H           1.04653874       1.30552336      -2.81135962
| 61> H           2.58304836       2.08410625      -3.10464009
| 62> *
| 63>
| 64>
| 65>                          ****END OF INPUT****
 Total Charge           Charge          ....    1
 Multiplicity           Mult            ....    1
 Number of Electrons    NEL             ....  160
Dispersion correction           -0.122004819
FINAL SINGLE POINT ENERGY      -888.462031246603
Dispersion correction            ... done
Dispersion correction           -0.122175735
FINAL SINGLE POINT ENERGY      -888.466450078732
Dispersion correction            ... done
Dispersion correction           -0.119816557
FINAL SINGLE POINT ENERGY      -888.467099572950
Dispersion correction            ... done
FINAL SINGLE POINT ENERGY      -888.467967100068
FINAL SINGLE POINT ENERGY      -888.468180462075
FINAL SINGLE POINT ENERGY      -888.468456232375
FINAL SINGLE POINT ENERGY      -888.468551498838
FINAL SINGLE POINT ENERGY      -888.468661067153
FINAL SINGLE POINT ENERGY      -888.468863623461
FINAL SINGLE POINT ENERGY      -888.469080821824
FINAL SINGLE POINT ENERGY      -888.469480481629
FINAL SINGLE POINT ENERGY      -888.469552872056
FINAL SINGLE POINT ENERGY      -888.469573382327
FINAL SINGLE POINT ENERGY      -888.469580091974
FINAL SINGLE POINT ENERGY      -888.469580877681
FINAL SINGLE POINT ENERGY      -888.469582730854
FINAL SINGLE POINT ENERGY      -888.469583245462
Dispersion correction           -0.121867270
FINAL SINGLE POINT ENERGY      -888.469583689866
Dispersion correction            ... done
Dispersion correction           -0.121864960
FINAL SINGLE POINT ENERGY      -888.469583795818
Dispersion correction            ... done
                    ***********************HURRAY********************

CARTESIAN COORDINATES (ANGSTROEM)
---------------------------------
  N     -2.219027    0.301627    0.712436
  N      0.026421    0.724587   -0.700862
  C     -0.848477    1.966119   -0.732600
  C     -2.176566    1.580488   -1.379780
  C     -1.078743    2.475883    0.686512
  C     -3.049168    0.774998   -0.393407
  C     -1.825506    1.430451    1.549520
  C     -2.759155   -0.836597    1.445729
  C     -2.789079   -2.106681    0.579207
  C      1.412629    0.911939   -0.278088
  C     -1.531310   -2.251040   -0.245237
  C      1.728686    0.738472    1.058745
  C      2.365096    1.240094   -1.238635
  C     -0.291163   -2.431313    0.371499
  C     -1.570051   -2.148467   -1.633792
  C      3.038279    0.921889    1.475629
  C      3.673714    1.416030   -0.794536
  C      4.009237    1.266201    0.544173
  C      0.877638   -2.486138   -0.375999
  C     -0.401941   -2.208561   -2.390403
  C      0.827791   -2.368083   -1.762112
  H     -0.315327    2.707860   -1.326562
  H     -1.992103    1.007227   -2.293405
  H     -2.684727    2.496644   -1.684917
  H     -1.669725    3.389015    0.592038
  H     -0.135065    2.764934    1.150391
  H     -3.877513    1.390918   -0.013916
  H     -3.493209   -0.077446   -0.903023
  H     -1.175915    1.055859    2.343879
  H     -2.695422    1.891067    2.039591
  H     -2.101328   -1.001357    2.303313
  H     -3.762661   -0.631525    1.845959
  H     -3.658701   -2.101912   -0.081147
  H     -2.913262   -2.967172    1.241705
  H      0.960996    0.446458    1.766321
  H     -0.240205   -2.534993    1.451428
  H     -2.526384   -2.035499   -2.135225
  H      3.298506    0.790269    2.518917
  H      5.035999    1.409876    0.859635
  H      1.830551   -2.627491    0.121511
  H     -0.457472   -2.150585   -3.472527
  H      1.738902   -2.427617   -2.347021
  H     -0.513460    0.084356   -0.075881
  H      0.009965    0.271087   -1.616390
  H      4.442185    1.669988   -1.516314
  C      2.014849    1.360904   -2.699925
  H      1.618585    0.418284   -3.093495
  H      1.274404    2.143028   -2.887301
  H      2.900922    1.605803   -3.283877

 Multiplicity           Mult            ....    1
 Number of Electrons    NEL             ....  160
 Basis Dimension        Dim             ....  844

ORBITAL ENERGIES
----------------

  NO   OCC          E(Eh)            E(eV)
   0   2.0000     -14.645849      -398.5338
   1   2.0000     -14.541694      -395.6996
   2   2.0000     -10.469625      -284.8930
   3   2.0000     -10.452085      -284.4157
   4   2.0000     -10.427616      -283.7499
   5   2.0000     -10.425429      -283.6903
   6   2.0000     -10.420573      -283.5582
   7   2.0000     -10.418973      -283.5147
   8   2.0000     -10.412182      -283.3299
   9   2.0000     -10.410778      -283.2917
  10   2.0000     -10.409179      -283.2482
  11   2.0000     -10.402853      -283.0760
  12   2.0000     -10.398990      -282.9709
  13   2.0000     -10.398764      -282.9648
  14   2.0000     -10.397961      -282.9429
  15   2.0000     -10.396809      -282.9116
  16   2.0000     -10.394377      -282.8454
  17   2.0000     -10.392534      -282.7952
  18   2.0000     -10.391152      -282.7576
  19   2.0000     -10.390713      -282.7457
  20   2.0000     -10.390546      -282.7411
  21   2.0000     -10.389422      -282.7106
  22   2.0000      -1.276855       -34.7450
  23   2.0000      -1.204441       -32.7745
  24   2.0000      -1.129909       -30.7464
  25   2.0000      -1.120046       -30.4780
  26   2.0000      -1.077957       -29.3327
  27   2.0000      -1.043301       -28.3897
  28   2.0000      -1.039031       -28.2735
  29   2.0000      -1.026986       -27.9457
  30   2.0000      -1.005883       -27.3715
  31   2.0000      -0.999228       -27.1904
  32   2.0000      -0.977256       -26.5925
  33   2.0000      -0.951034       -25.8789
  34   2.0000      -0.918744       -25.0003
  35   2.0000      -0.902918       -24.5697
  36   2.0000      -0.883163       -24.0321
  37   2.0000      -0.869570       -23.6622
  38   2.0000      -0.851721       -23.1765
  39   2.0000      -0.849262       -23.1096
  40   2.0000      -0.827113       -22.5069
  41   2.0000      -0.818210       -22.2646
  42   2.0000      -0.803194       -21.8560
  43   2.0000      -0.783056       -21.3080
  44   2.0000      -0.764479       -20.8025
  45   2.0000      -0.746601       -20.3161
  46   2.0000      -0.737492       -20.0682
  47   2.0000      -0.725163       -19.7327
  48   2.0000      -0.717683       -19.5292
  49   2.0000      -0.700186       -19.0530
  50   2.0000      -0.696826       -18.9616
  51   2.0000      -0.691201       -18.8085
  52   2.0000      -0.685955       -18.6658
  53   2.0000      -0.672043       -18.2872
  54   2.0000      -0.670554       -18.2467
  55   2.0000      -0.667748       -18.1703
  56   2.0000      -0.661796       -18.0084
  57   2.0000      -0.652195       -17.7471
  58   2.0000      -0.648914       -17.6579
  59   2.0000      -0.643352       -17.5065
  60   2.0000      -0.638970       -17.3873
  61   2.0000      -0.627142       -17.0654
  62   2.0000      -0.625219       -17.0131
  63   2.0000      -0.620346       -16.8805
  64   2.0000      -0.606959       -16.5162
  65   2.0000      -0.603228       -16.4147
  66   2.0000      -0.602344       -16.3906
  67   2.0000      -0.586985       -15.9727
  68   2.0000      -0.579664       -15.7735
  69   2.0000      -0.578150       -15.7323
  70   2.0000      -0.576545       -15.6886
  71   2.0000      -0.566001       -15.4017
  72   2.0000      -0.561083       -15.2678
  73   2.0000      -0.555530       -15.1167
  74   2.0000      -0.549553       -14.9541
  75   2.0000      -0.484056       -13.1718
  76   2.0000      -0.470225       -12.7955
  77   2.0000      -0.467737       -12.7278
  78   2.0000      -0.461529       -12.5588
  79   2.0000      -0.454008       -12.3542
  80   0.0000      -0.069174        -1.8823
  81   0.0000      -0.061029        -1.6607
  82   0.0000      -0.055721        -1.5162
  83   0.0000      -0.048461        -1.3187
  84   0.0000      -0.023625        -0.6429

MULLIKEN ATOMIC CHARGES
-----------------------
   0 N :   -0.225211
   1 N :    0.003953
   2 C :    0.047780
   3 C :   -0.265226
   4 C :   -0.255268
   5 C :   -0.148222
   6 C :   -0.228273
   7 C :   -0.180335
   8 C :   -0.303402
   9 C :    0.261645
  10 C :    0.191998
  11 C :   -0.296120
  12 C :   -0.110741
  13 C :   -0.173720
  14 C :   -0.234452
  15 C :   -0.074449
  16 C :   -0.091248
  17 C :   -0.143083
  18 C :   -0.098838
  19 C :   -0.162295
  20 C :   -0.168188
  21 H :    0.157631
  22 H :    0.137054
  23 H :    0.158174
  24 H :    0.146937
  25 H :    0.167160
  26 H :    0.135374
  27 H :    0.132807
  28 H :    0.143738
  29 H :    0.138490
  30 H :    0.132315
  31 H :    0.130630
  32 H :    0.156731
  33 H :    0.157115
  34 H :    0.129519
  35 H :    0.134187
  36 H :    0.143614
  37 H :    0.150505
  38 H :    0.152755
  39 H :    0.141452
  40 H :    0.146124
  41 H :    0.145966
  42 H :    0.214301
  43 H :    0.245231
  44 H :    0.143450
  45 C :   -0.429041
  46 H :    0.141790
  47 H :    0.142123
  48 H :    0.157565
Sum of atomic charges:    1.0000000

LOEWDIN ATOMIC CHARGES
----------------------
   0 N :    0.082318
   1 N :    0.282872
   2 C :   -0.226281
   3 C :   -0.218854
   4 C :   -0.213212
   5 C :   -0.249933
   6 C :   -0.266178
   7 C :   -0.265645
   8 C :   -0.204796
   9 C :   -0.162549
  10 C :   -0.151165
  11 C :   -0.110647
  12 C :   -0.140447
  13 C :   -0.115750
  14 C :   -0.124061
  15 C :   -0.114863
  16 C :   -0.086184
  17 C :   -0.102403
  18 C :   -0.127040
  19 C :   -0.151923
  20 C :   -0.147899
  21 H :    0.156872
  22 H :    0.140625
  23 H :    0.153324
  24 H :    0.155430
  25 H :    0.148324
  26 H :    0.133874
  27 H :    0.137892
  28 H :    0.131406
  29 H :    0.132871
  30 H :    0.136689
  31 H :    0.133715
  32 H :    0.143898
  33 H :    0.155283
  34 H :    0.151018
  35 H :    0.151588
  36 H :    0.149652
  37 H :    0.153941
  38 H :    0.155478
  39 H :    0.151510
  40 H :    0.150118
  41 H :    0.149401
  42 H :    0.215914
  43 H :    0.212950
  44 H :    0.155982
  45 C :   -0.239707
  46 H :    0.129156
  47 H :    0.127090
  48 H :    0.140346

  Mayer bond orders larger than 0.100000
B(  0-N ,  5-C ) :   0.8814 B(  0-N ,  6-C ) :   0.9048 B(  0-N ,  7-C ) :   0.9480
B(  0-N , 42-H ) :   0.1287 B(  1-N ,  2-C ) :   0.8495 B(  1-N ,  9-C ) :   0.8689
B(  1-N , 42-H ) :   0.8423 B(  1-N , 43-H ) :   0.8837 B(  2-C ,  3-C ) :   0.9565
B(  2-C ,  4-C ) :   0.9869 B(  2-C , 21-H ) :   0.9528 B(  3-C ,  5-C ) :   0.9902
B(  3-C , 22-H ) :   0.9661 B(  3-C , 23-H ) :   0.9695 B(  4-C ,  6-C ) :   0.9832
B(  4-C , 24-H ) :   0.9617 B(  4-C , 25-H ) :   0.9661 B(  5-C , 26-H ) :   0.9594
B(  5-C , 27-H ) :   0.9872 B(  6-C , 28-H ) :   0.9941 B(  6-C , 29-H ) :   0.9690
B(  7-C ,  8-C ) :   0.9580 B(  7-C , 30-H ) :   0.9824 B(  7-C , 31-H ) :   0.9700
B(  8-C , 10-C ) :   0.8579 B(  8-C , 32-H ) :   1.0034 B(  8-C , 33-H ) :   0.9789
B(  9-C , 11-C ) :   1.3625 B(  9-C , 12-C ) :   1.3733 B( 10-C , 13-C ) :   1.3049
B( 10-C , 14-C ) :   1.3420 B( 11-C , 12-C ) :   0.1121 B( 11-C , 15-C ) :   1.4213
B( 11-C , 34-H ) :   0.9911 B( 12-C , 16-C ) :   1.4437 B( 12-C , 45-C ) :   0.9348
B( 13-C , 18-C ) :   1.4566 B( 13-C , 35-H ) :   0.9919 B( 14-C , 19-C ) :   1.4157
B( 14-C , 36-H ) :   0.9770 B( 15-C , 17-C ) :   1.4063 B( 15-C , 37-H ) :   0.9663
B( 16-C , 17-C ) :   1.4207 B( 16-C , 44-H ) :   0.9616 B( 17-C , 38-H ) :   0.9675
B( 18-C , 20-C ) :   1.3489 B( 18-C , 39-H ) :   0.9798 B( 19-C , 20-C ) :   1.3732
B( 19-C , 40-H ) :   0.9967 B( 20-C , 41-H ) :   0.9906 B( 45-C , 46-H ) :   0.9753
B( 45-C , 47-H ) :   0.9791 B( 45-C , 48-H ) :   0.9778

Dispersion correction           -0.121863182
FINAL SINGLE POINT ENERGY      -888.469584028438

DIPOLE MOMENT
-------------
                                X             Y             Z
Electronic contribution:      8.25831      -4.39860       0.67782
Nuclear contribution   :     -8.50905       5.49992      -0.84899
                        -----------------------------------------
Total Dipole Moment    :     -0.25074       1.10132      -0.17117
                        -----------------------------------------
Magnitude (a.u.)       :      1.14240
Magnitude (Debye)      :      2.90376

Dispersion correction in the Hessian             ... done   (      2.0 sec)

VIBRATIONAL FREQUENCIES
-----------------------

Scaling factor for frequencies =  1.000000000  (already applied!)

   0:         0.00 cm**-1
   1:         0.00 cm**-1
   2:         0.00 cm**-1
   3:         0.00 cm**-1
   4:         0.00 cm**-1
   5:         0.00 cm**-1
   6:        33.42 cm**-1
   7:        42.83 cm**-1
   8:        49.02 cm**-1
   9:        84.01 cm**-1
  10:        87.20 cm**-1
  11:       102.77 cm**-1
  12:       118.10 cm**-1
  13:       119.55 cm**-1
  14:       134.90 cm**-1
  15:       171.69 cm**-1
  16:       181.23 cm**-1
  17:       204.19 cm**-1
  18:       232.11 cm**-1
  19:       275.71 cm**-1
  20:       286.95 cm**-1
  21:       307.85 cm**-1
  22:       337.65 cm**-1
  23:       360.39 cm**-1
  24:       371.16 cm**-1
  25:       386.68 cm**-1
  26:       423.41 cm**-1
  27:       437.59 cm**-1
  28:       452.99 cm**-1
  29:       469.13 cm**-1
  30:       497.72 cm**-1
  31:       510.01 cm**-1
  32:       522.40 cm**-1
  33:       536.81 cm**-1
  34:       567.28 cm**-1
  35:       618.03 cm**-1
  36:       631.14 cm**-1
  37:       637.89 cm**-1
  38:       720.20 cm**-1
  39:       734.02 cm**-1
  40:       740.51 cm**-1
  41:       775.60 cm**-1
  42:       784.08 cm**-1
  43:       790.33 cm**-1
  44:       793.12 cm**-1
  45:       802.80 cm**-1
  46:       830.33 cm**-1
  47:       849.65 cm**-1
  48:       862.42 cm**-1
  49:       883.97 cm**-1
  50:       894.08 cm**-1
  51:       905.52 cm**-1
  52:       923.50 cm**-1
  53:       940.09 cm**-1
  54:       953.26 cm**-1
  55:       975.64 cm**-1
  56:       987.54 cm**-1
  57:       992.48 cm**-1
  58:      1016.11 cm**-1
  59:      1019.63 cm**-1
  60:      1025.14 cm**-1
  61:      1026.16 cm**-1
  62:      1031.16 cm**-1
  63:      1036.39 cm**-1
  64:      1043.91 cm**-1
  65:      1046.52 cm**-1
  66:      1068.30 cm**-1
  67:      1071.30 cm**-1
  68:      1073.35 cm**-1
  69:      1088.70 cm**-1
  70:      1114.77 cm**-1
  71:      1128.65 cm**-1
  72:      1132.30 cm**-1
  73:      1156.64 cm**-1
  74:      1169.03 cm**-1
  75:      1183.70 cm**-1
  76:      1189.98 cm**-1
  77:      1205.60 cm**-1
  78:      1213.68 cm**-1
  79:      1216.65 cm**-1
  80:      1218.41 cm**-1
  81:      1220.49 cm**-1
  82:      1243.43 cm**-1
  83:      1264.82 cm**-1
  84:      1271.31 cm**-1
  85:      1281.04 cm**-1
  86:      1288.85 cm**-1
  87:      1303.72 cm**-1
  88:      1318.41 cm**-1
  89:      1323.19 cm**-1
  90:      1327.09 cm**-1
  91:      1341.18 cm**-1
  92:      1356.77 cm**-1
  93:      1366.22 cm**-1
  94:      1377.32 cm**-1
  95:      1384.17 cm**-1
  96:      1395.19 cm**-1
  97:      1401.68 cm**-1
  98:      1413.40 cm**-1
  99:      1423.29 cm**-1
 100:      1432.29 cm**-1
 101:      1438.20 cm**-1
 102:      1447.20 cm**-1
 103:      1489.27 cm**-1
 104:      1497.66 cm**-1
 105:      1502.96 cm**-1
 106:      1503.64 cm**-1
 107:      1507.23 cm**-1
 108:      1508.58 cm**-1
 109:      1517.18 cm**-1
 110:      1520.90 cm**-1
 111:      1526.87 cm**-1
 112:      1540.20 cm**-1
 113:      1553.48 cm**-1
 114:      1560.85 cm**-1
 115:      1665.86 cm**-1
 116:      1670.44 cm**-1
 117:      1679.01 cm**-1
 118:      1689.37 cm**-1
 119:      1709.62 cm**-1
 120:      3014.20 cm**-1
 121:      3016.74 cm**-1
 122:      3021.91 cm**-1
 123:      3056.58 cm**-1
 124:      3076.51 cm**-1
 125:      3081.10 cm**-1
 126:      3091.08 cm**-1
 127:      3100.44 cm**-1
 128:      3105.77 cm**-1
 129:      3108.42 cm**-1
 130:      3118.14 cm**-1
 131:      3133.33 cm**-1
 132:      3136.25 cm**-1
 133:      3148.63 cm**-1
 134:      3150.32 cm**-1
 135:      3166.46 cm**-1
 136:      3169.07 cm**-1
 137:      3188.28 cm**-1
 138:      3189.72 cm**-1
 139:      3203.66 cm**-1
 140:      3208.39 cm**-1
 141:      3213.27 cm**-1
 142:      3214.07 cm**-1
 143:      3224.21 cm**-1
 144:      3225.28 cm**-1
 145:      3236.36 cm**-1
 146:      3467.04 cm**-1

IR SPECTRUM
-----------

 Mode   freq       eps      Int      T**2         TX        TY        TZ
       cm**-1   L/(mol*cm) km/mol    a.u.
----------------------------------------------------------------------------
  6:     33.42   0.000017    0.09  0.000163  (-0.005096  0.007103  0.009322)
  7:     42.83   0.000134    0.68  0.000979  (-0.027970  0.007198 -0.012022)
  8:     49.02   0.000163    0.82  0.001038  ( 0.022854  0.016269 -0.015844)
  9:     84.01   0.000099    0.50  0.000366  ( 0.011400 -0.015352  0.000708)
 10:     87.20   0.000283    1.43  0.001011  ( 0.003574 -0.030677  0.007581)
 11:    102.77   0.000131    0.66  0.000397  ( 0.006437 -0.011035 -0.015281)
 12:    118.10   0.000507    2.56  0.001341  ( 0.008967  0.034829 -0.006891)
 13:    119.55   0.000023    0.11  0.000059  ( 0.007220  0.001178 -0.002405)
 14:    134.90   0.000048    0.24  0.000110  (-0.001423  0.010131  0.002393)
 15:    171.69   0.001213    6.13  0.002204  (-0.040275  0.013257  0.020149)
 16:    181.23   0.000318    1.61  0.000548  (-0.007584  0.021702  0.004400)
 17:    204.19   0.000025    0.13  0.000039  ( 0.003070 -0.005199 -0.001492)
 18:    232.11   0.000094    0.48  0.000127  (-0.008575 -0.006864 -0.002473)
 19:    275.71   0.000907    4.58  0.001026  (-0.021448  0.022456  0.007885)
 20:    286.95   0.000029    0.15  0.000032  (-0.003440  0.003527  0.002790)
 21:    307.85   0.000191    0.97  0.000194  (-0.010142 -0.002848  0.009110)
 22:    337.65   0.001425    7.20  0.001317  (-0.001679  0.036201 -0.001952)
 23:    360.39   0.000231    1.17  0.000200  ( 0.008059  0.001361 -0.011526)
 24:    371.16   0.004387   22.17  0.003689  (-0.053616  0.008926  0.027099)
 25:    386.68   0.000257    1.30  0.000207  ( 0.011836  0.007573 -0.003172)
 26:    423.41   0.000005    0.02  0.000003  ( 0.000581  0.001770  0.000073)
 27:    437.59   0.000205    1.04  0.000146  ( 0.005555 -0.008934  0.005982)
 28:    452.99   0.001754    8.86  0.001208  (-0.024118 -0.018267  0.017109)
 29:    469.13   0.002184   11.04  0.001453  ( 0.022884 -0.026828 -0.014464)
 30:    497.72   0.000185    0.93  0.000116  (-0.009490  0.000279  0.005081)
 31:    510.01   0.001330    6.72  0.000814  (-0.000890 -0.028319 -0.003357)
 32:    522.40   0.003818   19.29  0.002281  ( 0.044033  0.008148 -0.016594)
 33:    536.81   0.000586    2.96  0.000341  (-0.014665  0.007198  0.008597)
 34:    567.28   0.000362    1.83  0.000199  ( 0.003590  0.012559 -0.005322)
 35:    618.03   0.002659   13.44  0.001342  (-0.006044 -0.036137  0.000300)
 36:    631.14   0.000210    1.06  0.000104  ( 0.008104  0.006068 -0.001228)
 37:    637.89   0.000003    0.01  0.000001  (-0.000131  0.000709  0.000894)
 38:    720.20   0.000666    3.36  0.000288  ( 0.005713  0.014006 -0.007724)
 39:    734.02   0.006667   33.69  0.002834  ( 0.005828  0.052645  0.005366)
 40:    740.51   0.001265    6.39  0.000533  ( 0.014135 -0.015380 -0.009842)
 41:    775.60   0.004214   21.30  0.001696  ( 0.001359 -0.041005 -0.003502)
 42:    784.08   0.014841   75.00  0.005907  ( 0.016410  0.074847  0.005943)
 43:    790.33   0.000433    2.19  0.000171  ( 0.010262  0.007700 -0.002518)
 44:    793.12   0.000702    3.55  0.000276  ( 0.004896 -0.015322 -0.004183)
 45:    802.80   0.004533   22.91  0.001762  (-0.027376  0.028804  0.013530)
 46:    830.33   0.001138    5.75  0.000428  ( 0.018611 -0.001586 -0.008868)
 47:    849.65   0.000830    4.19  0.000305  ( 0.013089 -0.000601 -0.011541)
 48:    862.42   0.000128    0.65  0.000046  ( 0.004916 -0.003680 -0.002950)
 49:    883.97   0.003554   17.96  0.001255  (-0.029223  0.003997  0.019611)
 50:    894.08   0.000584    2.95  0.000204  ( 0.007235 -0.003239 -0.011873)
 51:    905.52   0.000155    0.78  0.000053  ( 0.001030 -0.005100  0.005130)
 52:    923.50   0.000256    1.29  0.000087  ( 0.005602 -0.002764 -0.006891)
 53:    940.09   0.002026   10.24  0.000673  ( 0.021369 -0.011068 -0.009668)
 54:    953.26   0.002148   10.85  0.000703  ( 0.020959 -0.001284 -0.016191)
 55:    975.64   0.000592    2.99  0.000189  ( 0.012941  0.000212 -0.004679)
 56:    987.54   0.000484    2.45  0.000153  (-0.003311  0.011599 -0.002729)
 57:    992.48   0.000039    0.20  0.000012  ( 0.001889  0.000438  0.002907)
 58:   1016.11   0.000394    1.99  0.000121  ( 0.006756  0.002935  0.008166)
 59:   1019.63   0.002866   14.48  0.000877  (-0.021599  0.020237 -0.001026)
 60:   1025.14   0.000202    1.02  0.000061  (-0.000573  0.007082 -0.003302)
 61:   1026.16   0.001634    8.26  0.000497  (-0.000837  0.022223 -0.001526)
 62:   1031.16   0.000086    0.43  0.000026  (-0.001558  0.000248 -0.004841)
 63:   1036.39   0.000006    0.03  0.000002  (-0.000648  0.000819 -0.000888)
 64:   1043.91   0.000004    0.02  0.000001  (-0.000553  0.000870  0.000085)
 65:   1046.52   0.001418    7.17  0.000423  (-0.017013 -0.004282 -0.010730)
 66:   1068.30   0.000279    1.41  0.000082  (-0.007710 -0.002922  0.003683)
 67:   1071.30   0.003982   20.12  0.001160  (-0.028840  0.011159  0.014270)
 68:   1073.35   0.000305    1.54  0.000089  ( 0.000187 -0.009014 -0.002710)
 69:   1088.70   0.000769    3.89  0.000221  ( 0.008942 -0.005290  0.010610)
 70:   1114.77   0.000379    1.91  0.000106  ( 0.000400  0.009739  0.003320)
 71:   1128.65   0.003503   17.70  0.000969  ( 0.022940  0.003112 -0.020800)
 72:   1132.30   0.007342   37.11  0.002024  (-0.044611 -0.002570  0.005179)
 73:   1156.64   0.001095    5.53  0.000295  (-0.016081  0.002740 -0.005414)
 74:   1169.03   0.001627    8.22  0.000434  (-0.005981 -0.009062 -0.017790)
 75:   1183.70   0.000143    0.72  0.000038  ( 0.000584 -0.001413 -0.005939)
 76:   1189.98   0.000443    2.24  0.000116  (-0.007001 -0.003043  0.007612)
 77:   1205.60   0.006522   32.96  0.001688  ( 0.013719  0.033468 -0.019494)
 78:   1213.68   0.000389    1.97  0.000100  ( 0.008818 -0.004691 -0.000572)
 79:   1216.65   0.001820    9.20  0.000467  ( 0.013761 -0.016458 -0.002574)
 80:   1218.41   0.000916    4.63  0.000235  ( 0.005765  0.008843 -0.011100)
 81:   1220.49   0.001263    6.38  0.000323  ( 0.010568  0.014497 -0.001063)
 82:   1243.43   0.000222    1.12  0.000056  ( 0.001449  0.004733 -0.005598)
 83:   1264.82   0.001816    9.18  0.000448  (-0.011039  0.008983 -0.015669)
 84:   1271.31   0.000660    3.34  0.000162  (-0.005990  0.009210  0.006429)
 85:   1281.04   0.000847    4.28  0.000206  ( 0.012197 -0.004919 -0.005777)
 86:   1288.85   0.003076   15.55  0.000745  (-0.021549  0.016503  0.002855)
 87:   1303.72   0.000307    1.55  0.000074  (-0.005215 -0.003043 -0.006092)
 88:   1318.41   0.000497    2.51  0.000118  (-0.004368 -0.001604  0.009799)
 89:   1323.19   0.002022   10.22  0.000477  (-0.021625  0.002532  0.001684)
 90:   1327.09   0.002848   14.39  0.000670  ( 0.016276 -0.008389 -0.018289)
 91:   1341.18   0.000383    1.93  0.000089  ( 0.005766 -0.005507  0.005052)
 92:   1356.77   0.001812    9.16  0.000417  (-0.014255  0.014600  0.000603)
 93:   1366.22   0.000305    1.54  0.000070  (-0.005540 -0.002292 -0.005814)
 94:   1377.32   0.001405    7.10  0.000318  (-0.004722  0.011080  0.013168)
 95:   1384.17   0.001849    9.34  0.000417  (-0.012430  0.015509 -0.004666)
 96:   1395.19   0.000755    3.82  0.000169  (-0.003115  0.012601 -0.000656)
 97:   1401.68   0.001341    6.78  0.000299  (-0.006941 -0.010981  0.011394)
 98:   1413.40   0.012540   63.37  0.002769  ( 0.051309 -0.010162 -0.005735)
 99:   1423.29   0.006568   33.19  0.001440  (-0.025782  0.024308  0.013578)
100:   1432.29   0.003183   16.09  0.000693  (-0.018454  0.012536  0.013992)
101:   1438.20   0.003008   15.20  0.000653  ( 0.001719 -0.022511  0.011954)
102:   1447.20   0.002155   10.89  0.000465  (-0.017197  0.012386  0.003939)
103:   1489.27   0.000575    2.90  0.000120  ( 0.005713  0.005219 -0.007781)
104:   1497.66   0.003079   15.56  0.000642  (-0.001933  0.017192  0.018500)
105:   1502.96   0.001318    6.66  0.000274  ( 0.001827  0.013802 -0.008931)
106:   1503.64   0.000623    3.15  0.000129  ( 0.000798  0.011103  0.002332)
107:   1507.23   0.001558    7.87  0.000323  ( 0.003527  0.015839 -0.007695)
108:   1508.58   0.001884    9.52  0.000390  ( 0.008406  0.011726  0.013477)
109:   1517.18   0.000451    2.28  0.000093  (-0.006367 -0.006239  0.003635)
110:   1520.90   0.003964   20.03  0.000813  (-0.016037 -0.000161 -0.023584)
111:   1526.87   0.003090   15.62  0.000632  (-0.022489 -0.003755  0.010571)
112:   1540.20   0.006154   31.10  0.001247  ( 0.031012 -0.004737 -0.016207)
113:   1553.48   0.002787   14.08  0.000560  (-0.019671  0.002151  0.012970)
114:   1560.85   0.004952   25.03  0.000990  ( 0.019181  0.004881  0.024462)
115:   1665.86   0.000231    1.17  0.000043  (-0.003979 -0.000464 -0.005213)
116:   1670.44   0.015900   80.35  0.002970  ( 0.018186  0.051358  0.001426)
117:   1679.01   0.005101   25.78  0.000948  ( 0.009016  0.029017  0.004978)
118:   1689.37   0.001691    8.55  0.000312  ( 0.010668 -0.010133 -0.009795)
119:   1709.62   0.000632    3.19  0.000115  ( 0.005186  0.009186 -0.002017)
120:   3014.20   0.015001   75.81  0.001553  (-0.035715  0.011163  0.012365)
121:   3016.74   0.002560   12.94  0.000265  (-0.003927 -0.004301 -0.015196)
122:   3021.91   0.022550  113.96  0.002329  (-0.038224 -0.005046  0.029021)
123:   3056.58   0.002723   13.76  0.000278  (-0.013018 -0.003746 -0.009721)
124:   3076.51   0.036914  186.55  0.003744  (-0.049480 -0.035451  0.006266)
125:   3081.10   0.043145  218.04  0.004370  ( 0.051561  0.031341 -0.027000)
126:   3091.08   0.000491    2.48  0.000050  ( 0.006472  0.002561 -0.001065)
127:   3100.44   0.000611    3.09  0.000062  (-0.007144 -0.000412 -0.003208)
128:   3105.77   0.002461   12.44  0.000247  (-0.007950 -0.013290 -0.002737)
129:   3108.42   0.003509   17.73  0.000352  (-0.015181  0.006503 -0.008917)
130:   3118.14   0.001648    8.33  0.000165  ( 0.002173 -0.012478  0.002118)
131:   3133.33   0.001924    9.72  0.000192  (-0.008460  0.005684 -0.009366)
132:   3136.25   0.001263    6.38  0.000126  (-0.007212  0.008571 -0.000491)
133:   3148.63   0.001008    5.10  0.000100  (-0.006398  0.006215 -0.004514)
134:   3150.32   0.002128   10.75  0.000211  (-0.013898  0.000281 -0.004191)
135:   3166.46   0.002046   10.34  0.000202  (-0.002845 -0.011339 -0.008061)
136:   3169.07   0.000864    4.37  0.000085  (-0.008458 -0.000409  0.003663)
137:   3188.28   0.000756    3.82  0.000074  ( 0.004472 -0.000563 -0.007328)
138:   3189.72   0.000553    2.79  0.000054  (-0.006732  0.001289 -0.002668)
139:   3203.66   0.000405    2.05  0.000039  (-0.006200  0.000558 -0.000849)
140:   3208.39   0.000293    1.48  0.000028  (-0.003455 -0.001510  0.003777)
141:   3213.27   0.001075    5.43  0.000104  (-0.004898  0.000490 -0.008954)
142:   3214.07   0.000264    1.34  0.000026  ( 0.004625  0.002018  0.000436)
143:   3224.21   0.000768    3.88  0.000074  ( 0.007585  0.002699 -0.003079)
144:   3225.28   0.000577    2.92  0.000056  ( 0.007347  0.000410 -0.001292)
145:   3236.36   0.000144    0.73  0.000014  (-0.001591  0.000555 -0.003317)
146:   3467.04   0.009026   45.61  0.000812  (-0.001267  0.022111  0.017942)

--------------------------
THERMOCHEMISTRY AT 298.15K
--------------------------

Temperature         ... 298.15 K
Pressure            ... 1.00 atm
Total Mass          ... 295.45 AMU

Throughout the following assumptions are being made:
  (1) The electronic state is orbitally nondegenerate
  (2) There are no thermally accessible electronically excited states
  (3) Hindered rotations indicated by low frequency modes are not
      treated as such but are treated as vibrations and this may
      cause some error
  (4) All equations used are the standard statistical mechanics
      equations for an ideal gas
  (5) All vibrations are strictly harmonic

freq.      33.42  E(vib)   ...       0.55
freq.      42.83  E(vib)   ...       0.53
freq.      49.02  E(vib)   ...       0.53
freq.      84.01  E(vib)   ...       0.48
freq.      87.20  E(vib)   ...       0.48
freq.     102.77  E(vib)   ...       0.46
freq.     118.10  E(vib)   ...       0.44
freq.     119.55  E(vib)   ...       0.44
freq.     134.90  E(vib)   ...       0.42
freq.     171.69  E(vib)   ...       0.38
freq.     181.23  E(vib)   ...       0.37
freq.     204.19  E(vib)   ...       0.35
freq.     232.11  E(vib)   ...       0.32
freq.     275.71  E(vib)   ...       0.28
freq.     286.95  E(vib)   ...       0.27
freq.     307.85  E(vib)   ...       0.26
freq.     337.65  E(vib)   ...       0.24
freq.     360.39  E(vib)   ...       0.22
freq.     371.16  E(vib)   ...       0.21
freq.     386.68  E(vib)   ...       0.20
freq.     423.41  E(vib)   ...       0.18
freq.     437.59  E(vib)   ...       0.17
freq.     452.99  E(vib)   ...       0.16
freq.     469.13  E(vib)   ...       0.16
freq.     497.72  E(vib)   ...       0.14
freq.     510.01  E(vib)   ...       0.14
freq.     522.40  E(vib)   ...       0.13
freq.     536.81  E(vib)   ...       0.12
freq.     567.28  E(vib)   ...       0.11
freq.     618.03  E(vib)   ...       0.09
freq.     631.14  E(vib)   ...       0.09
freq.     637.89  E(vib)   ...       0.09
freq.     720.20  E(vib)   ...       0.07
freq.     734.02  E(vib)   ...       0.06
freq.     740.51  E(vib)   ...       0.06
freq.     775.60  E(vib)   ...       0.05
freq.     784.08  E(vib)   ...       0.05
freq.     790.33  E(vib)   ...       0.05
freq.     793.12  E(vib)   ...       0.05
freq.     802.80  E(vib)   ...       0.05
freq.     830.33  E(vib)   ...       0.04
freq.     849.65  E(vib)   ...       0.04
freq.     862.42  E(vib)   ...       0.04
freq.     883.97  E(vib)   ...       0.04
freq.     894.08  E(vib)   ...       0.03
freq.     905.52  E(vib)   ...       0.03
freq.     923.50  E(vib)   ...       0.03
freq.     940.09  E(vib)   ...       0.03
freq.     953.26  E(vib)   ...       0.03
freq.     975.64  E(vib)   ...       0.03
freq.     987.54  E(vib)   ...       0.02
freq.     992.48  E(vib)   ...       0.02
freq.    1016.11  E(vib)   ...       0.02
freq.    1019.63  E(vib)   ...       0.02
freq.    1025.14  E(vib)   ...       0.02
freq.    1026.16  E(vib)   ...       0.02
freq.    1031.16  E(vib)   ...       0.02
freq.    1036.39  E(vib)   ...       0.02
freq.    1043.91  E(vib)   ...       0.02
freq.    1046.52  E(vib)   ...       0.02
freq.    1068.30  E(vib)   ...       0.02
freq.    1071.30  E(vib)   ...       0.02
freq.    1073.35  E(vib)   ...       0.02
freq.    1088.70  E(vib)   ...       0.02
freq.    1114.77  E(vib)   ...       0.01
freq.    1128.65  E(vib)   ...       0.01
freq.    1132.30  E(vib)   ...       0.01
freq.    1156.64  E(vib)   ...       0.01
freq.    1169.03  E(vib)   ...       0.01
freq.    1183.70  E(vib)   ...       0.01
freq.    1189.98  E(vib)   ...       0.01
freq.    1205.60  E(vib)   ...       0.01
freq.    1213.68  E(vib)   ...       0.01
freq.    1216.65  E(vib)   ...       0.01
freq.    1218.41  E(vib)   ...       0.01
freq.    1220.49  E(vib)   ...       0.01
freq.    1243.43  E(vib)   ...       0.01
freq.    1264.82  E(vib)   ...       0.01
freq.    1271.31  E(vib)   ...       0.01
freq.    1281.04  E(vib)   ...       0.01
freq.    1288.85  E(vib)   ...       0.01
freq.    1303.72  E(vib)   ...       0.01
freq.    1318.41  E(vib)   ...       0.01
freq.    1323.19  E(vib)   ...       0.01
freq.    1327.09  E(vib)   ...       0.01
freq.    1341.18  E(vib)   ...       0.01
freq.    1356.77  E(vib)   ...       0.01
freq.    1366.22  E(vib)   ...       0.01
freq.    1377.32  E(vib)   ...       0.01
freq.    1384.17  E(vib)   ...       0.00
freq.    1395.19  E(vib)   ...       0.00
freq.    1401.68  E(vib)   ...       0.00
freq.    1413.40  E(vib)   ...       0.00
freq.    1423.29  E(vib)   ...       0.00
freq.    1432.29  E(vib)   ...       0.00
freq.    1438.20  E(vib)   ...       0.00
freq.    1447.20  E(vib)   ...       0.00
freq.    1489.27  E(vib)   ...       0.00
freq.    1497.66  E(vib)   ...       0.00
freq.    1502.96  E(vib)   ...       0.00
freq.    1503.64  E(vib)   ...       0.00
freq.    1507.23  E(vib)   ...       0.00
freq.    1508.58  E(vib)   ...       0.00
freq.    1517.18  E(vib)   ...       0.00
freq.    1520.90  E(vib)   ...       0.00
freq.    1526.87  E(vib)   ...       0.00
freq.    1540.20  E(vib)   ...       0.00
freq.    1553.48  E(vib)   ...       0.00
freq.    1560.85  E(vib)   ...       0.00
freq.    1665.86  E(vib)   ...       0.00
freq.    1670.44  E(vib)   ...       0.00
freq.    1679.01  E(vib)   ...       0.00
freq.    1689.37  E(vib)   ...       0.00
freq.    1709.62  E(vib)   ...       0.00
freq.    3014.20  E(vib)   ...       0.00
freq.    3016.74  E(vib)   ...       0.00
freq.    3021.91  E(vib)   ...       0.00
freq.    3056.58  E(vib)   ...       0.00
freq.    3076.51  E(vib)   ...       0.00
freq.    3081.10  E(vib)   ...       0.00
freq.    3091.08  E(vib)   ...       0.00
freq.    3100.44  E(vib)   ...       0.00
freq.    3105.77  E(vib)   ...       0.00
freq.    3108.42  E(vib)   ...       0.00
freq.    3118.14  E(vib)   ...       0.00
freq.    3133.33  E(vib)   ...       0.00
freq.    3136.25  E(vib)   ...       0.00
freq.    3148.63  E(vib)   ...       0.00
freq.    3150.32  E(vib)   ...       0.00
freq.    3166.46  E(vib)   ...       0.00
freq.    3169.07  E(vib)   ...       0.00
freq.    3188.28  E(vib)   ...       0.00
freq.    3189.72  E(vib)   ...       0.00
freq.    3203.66  E(vib)   ...       0.00
freq.    3208.39  E(vib)   ...       0.00
freq.    3213.27  E(vib)   ...       0.00
freq.    3214.07  E(vib)   ...       0.00
freq.    3224.21  E(vib)   ...       0.00
freq.    3225.28  E(vib)   ...       0.00
freq.    3236.36  E(vib)   ...       0.00
freq.    3467.04  E(vib)   ...       0.00

------------
INNER ENERGY

Rotational constants in cm-1:     0.013815     0.008762     0.007400

                             ****ORCA TERMINATED NORMALLY****
TOTAL RUN TIME: 0 days 8 hours 39 minutes 21 seconds 189 msec
