                         Program Version 5.0.4 -  RELEASE  -
|  1> ! wB97X-D3BJ TightOpt Freq def2-TZVP def2/J RIJCOSX TightSCF defgrid3 CHELPG
|  2> %maxcore 3400
|  3>
|  4> %pal nprocs 8
|  5> end
|  6>
|  7> %chelpg
|  8> grid 0.1
|  9> rmax 3.0
| 10> end
| 11>
| 12> *xyz 1 1
| 13> N          -2.36517100       0.10542100       0.47057300
| 14> N           0.13048400       0.75875500      -0.27740800
| 15> C          -0.70406400       2.01569000      -0.10743200
| 16> C          -1.87822800       1.93468900      -1.08076300
| 17> C          -1.20865600       2.09479100       1.32982600
| 18> C          -2.95866900       0.97371800      -0.54459800
| 19> C          -2.09881300       0.87861000       1.68050000
| 20> C          -3.06859100      -1.15045300       0.70036800
| 21> C          -2.98923600      -2.07721900      -0.52430700
| 22> C           1.34421200       0.69133800       0.53625700
| 23> C          -1.60884200      -2.07012500      -1.13764700
| 24> C           1.37563500      -0.14419400       1.63466900
| 25> C           2.42505300       1.48361700       0.18162700
| 26> C          -0.51410300      -2.57439800      -0.43288600
| 27> C          -1.38429000      -1.50425600      -2.39038100
| 28> C           2.53284200      -0.17370200       2.40519300
| 29> C           3.58632700       1.45357000       0.94659400
| 30> C           3.61932400       0.61613000       2.06440300
| 31> C           0.77050400      -2.49282400      -0.95366800
| 32> C          -0.09928900      -1.42367100      -2.92119900
| 33> C           0.98503100      -1.90858300      -2.19875000
| 34> H          -0.04995800       2.85671500      -0.33813700
| 35> H          -1.52403500       1.61030900      -2.06372700
| 36> H          -2.28482600       2.93897900      -1.21040200
| 37> H          -1.77664700       3.02400500       1.40682500
| 38> H          -0.37469600       2.17871400       2.02775800
| 39> H          -3.80488700       1.53428000      -0.12127800
| 40> H          -3.35275500       0.36806700      -1.35766800
| 41> H          -1.58971700       0.22909800       2.39596900
| 42> H          -3.03115100       1.21437700       2.15677600
| 43> H          -2.58038600      -1.63492100       1.55054000
| 44> H          -4.11909900      -0.98930000       0.98281000
| 45> H          -3.72461900      -1.78474500      -1.27663500
| 46> H          -3.26231700      -3.08641100      -0.20563300
| 47> H           0.52587200      -0.77066600       1.87869800
| 48> H          -0.67077600      -3.04285600       0.53455300
| 49> H          -2.22527200      -1.13328200      -2.96811500
| 50> H           2.58400600      -0.82082400       3.27294200
| 51> H           4.51686900       0.58226600       2.67294500
| 52> H           1.60734700      -2.89231100      -0.39179600
| 53> H           0.05064300      -0.99902800      -3.90833400
| 54> H           1.98584500      -1.85847500      -2.61267800
| 55> H          -0.55565700       0.00404600      -0.04411700
| 56> H           0.36328300       0.62006400      -1.26288900
| 57> C           2.34967763       2.39153525      -1.05998607
| 58> H           1.96240968       3.34860184      -0.77901084
| 59> H           3.32883300       2.51072516      -1.47465284
| 60> H           1.70541901       1.94610477      -1.78897339
| 61> H           4.43162866       2.05560870       0.68598988
| 62> *
| 63>
| 64>
| 65>                          ****END OF INPUT****
 Total Charge           Charge          ....    1
 Multiplicity           Mult            ....    1
 Number of Electrons    NEL             ....  160
Dispersion correction           -0.121900054
FINAL SINGLE POINT ENERGY      -888.464867183891
Dispersion correction            ... done
Dispersion correction           -0.121914452
FINAL SINGLE POINT ENERGY      -888.468125628351
Dispersion correction            ... done
Dispersion correction           -0.121448879
FINAL SINGLE POINT ENERGY      -888.468790606507
Dispersion correction            ... done
FINAL SINGLE POINT ENERGY      -888.468758055801
FINAL SINGLE POINT ENERGY      -888.468833358422
FINAL SINGLE POINT ENERGY      -888.469009522691
FINAL SINGLE POINT ENERGY      -888.469109471328
FINAL SINGLE POINT ENERGY      -888.469152990521
FINAL SINGLE POINT ENERGY      -888.469280679392
FINAL SINGLE POINT ENERGY      -888.469430575351
FINAL SINGLE POINT ENERGY      -888.469536482921
FINAL SINGLE POINT ENERGY      -888.469558217112
FINAL SINGLE POINT ENERGY      -888.469578682942
FINAL SINGLE POINT ENERGY      -888.469585337067
FINAL SINGLE POINT ENERGY      -888.469585612094
Dispersion correction           -0.121909175
FINAL SINGLE POINT ENERGY      -888.469586346394
Dispersion correction            ... done
Dispersion correction           -0.121906224
FINAL SINGLE POINT ENERGY      -888.469586686261
Dispersion correction            ... done
                    ***********************HURRAY********************

CARTESIAN COORDINATES (ANGSTROEM)
---------------------------------
  N     -2.431612    0.082063    0.486275
  N      0.062415    0.821262   -0.178831
  C     -0.794166    2.051590    0.066458
  C     -1.946119    2.020964   -0.935183
  C     -1.332502    2.033233    1.493605
  C     -3.004505    0.977983   -0.516288
  C     -2.242528    0.805514    1.739794
  C     -3.108759   -1.201501    0.624115
  C     -2.938724   -2.070351   -0.633443
  C      1.320793    0.742340    0.559805
  C     -1.530881   -1.997832   -1.176807
  C      1.338359    0.073589    1.772075
  C      2.457083    1.327214    0.008069
  C     -0.452877   -2.478919   -0.430316
  C     -1.267857   -1.396153   -2.405208
  C      2.523066   -0.001353    2.488551
  C      3.634879    1.236041    0.746485
  C      3.670762    0.586948    1.973150
  C      0.850848   -2.342961   -0.888155
  C      0.037318   -1.261429   -2.873182
  C      1.102486   -1.726100   -2.110378
  H     -0.150649    2.916528   -0.091380
  H     -1.562168    1.804673   -1.936750
  H     -2.384568    3.019196   -0.979244
  H     -1.894779    2.960302    1.621298
  H     -0.514814    2.065689    2.214429
  H     -3.902769    1.472434   -0.118651
  H     -3.316444    0.398703   -1.382655
  H     -1.781488    0.125714    2.459892
  H     -3.203408    1.122401    2.170271
  H     -2.651971   -1.710177    1.477309
  H     -4.176958   -1.081762    0.856242
  H     -3.644694   -1.767138   -1.409319
  H     -3.195523   -3.100166   -0.372135
  H      0.437228   -0.398873    2.146378
  H     -0.636957   -2.970855    0.520327
  H     -2.093306   -1.040516   -3.014187
  H      2.549891   -0.520794    3.438793
  H      4.602099    0.532366    2.524558
  H      1.674146   -2.723750   -0.294263
  H      0.217939   -0.810703   -3.843588
  H      2.119530   -1.634443   -2.475110
  H     -0.597058    0.041300    0.043128
  H      0.249949    0.728633   -1.179012
  C      2.434048    1.994655   -1.343496
  H      1.748082    2.845194   -1.376142
  H      3.424913    2.366576   -1.600412
  H      2.138655    1.291358   -2.129982
  H      4.540086    1.678896    0.345857

 Multiplicity           Mult            ....    1
 Number of Electrons    NEL             ....  160
 Basis Dimension        Dim             ....  844

ORBITAL ENERGIES
----------------

  NO   OCC          E(Eh)            E(eV)
   0   2.0000     -14.645612      -398.5274
   1   2.0000     -14.541883      -395.7048
   2   2.0000     -10.469572      -284.8915
   3   2.0000     -10.452018      -284.4139
   4   2.0000     -10.427652      -283.7508
   5   2.0000     -10.425469      -283.6914
   6   2.0000     -10.420534      -283.5571
   7   2.0000     -10.419073      -283.5174
   8   2.0000     -10.412189      -283.3301
   9   2.0000     -10.410732      -283.2904
  10   2.0000     -10.409168      -283.2479
  11   2.0000     -10.402928      -283.0780
  12   2.0000     -10.398956      -282.9700
  13   2.0000     -10.398714      -282.9634
  14   2.0000     -10.397937      -282.9423
  15   2.0000     -10.396781      -282.9108
  16   2.0000     -10.394454      -282.8475
  17   2.0000     -10.392563      -282.7960
  18   2.0000     -10.391244      -282.7601
  19   2.0000     -10.390765      -282.7471
  20   2.0000     -10.390605      -282.7427
  21   2.0000     -10.389517      -282.7131
  22   2.0000      -1.276743       -34.7419
  23   2.0000      -1.204526       -32.7768
  24   2.0000      -1.129854       -30.7449
  25   2.0000      -1.120120       -30.4800
  26   2.0000      -1.077934       -29.3321
  27   2.0000      -1.043240       -28.3880
  28   2.0000      -1.039083       -28.2749
  29   2.0000      -1.026990       -27.9458
  30   2.0000      -1.005828       -27.3700
  31   2.0000      -0.999289       -27.1920
  32   2.0000      -0.977309       -26.5939
  33   2.0000      -0.950979       -25.8774
  34   2.0000      -0.918745       -25.0003
  35   2.0000      -0.902934       -24.5701
  36   2.0000      -0.883129       -24.0312
  37   2.0000      -0.869571       -23.6622
  38   2.0000      -0.851659       -23.1748
  39   2.0000      -0.849348       -23.1119
  40   2.0000      -0.827150       -22.5079
  41   2.0000      -0.818217       -22.2648
  42   2.0000      -0.803199       -21.8561
  43   2.0000      -0.783015       -21.3069
  44   2.0000      -0.764537       -20.8041
  45   2.0000      -0.746578       -20.3154
  46   2.0000      -0.737449       -20.0670
  47   2.0000      -0.725130       -19.7318
  48   2.0000      -0.717641       -19.5280
  49   2.0000      -0.700223       -19.0540
  50   2.0000      -0.696853       -18.9623
  51   2.0000      -0.691263       -18.8102
  52   2.0000      -0.686013       -18.6674
  53   2.0000      -0.671963       -18.2850
  54   2.0000      -0.670544       -18.2464
  55   2.0000      -0.667783       -18.1713
  56   2.0000      -0.661788       -18.0082
  57   2.0000      -0.652212       -17.7476
  58   2.0000      -0.648919       -17.6580
  59   2.0000      -0.643396       -17.5077
  60   2.0000      -0.638968       -17.3872
  61   2.0000      -0.627118       -17.0647
  62   2.0000      -0.625227       -17.0133
  63   2.0000      -0.620360       -16.8808
  64   2.0000      -0.606930       -16.5154
  65   2.0000      -0.603268       -16.4158
  66   2.0000      -0.602343       -16.3906
  67   2.0000      -0.587024       -15.9737
  68   2.0000      -0.579631       -15.7725
  69   2.0000      -0.578131       -15.7318
  70   2.0000      -0.576550       -15.6887
  71   2.0000      -0.566029       -15.4024
  72   2.0000      -0.561109       -15.2686
  73   2.0000      -0.555601       -15.1187
  74   2.0000      -0.549580       -14.9548
  75   2.0000      -0.484085       -13.1726
  76   2.0000      -0.470208       -12.7950
  77   2.0000      -0.467743       -12.7279
  78   2.0000      -0.461581       -12.5603
  79   2.0000      -0.454159       -12.3583
  80   0.0000      -0.069180        -1.8825
  81   0.0000      -0.061003        -1.6600
  82   0.0000      -0.055803        -1.5185
  83   0.0000      -0.048472        -1.3190
  84   0.0000      -0.023598        -0.6421

MULLIKEN ATOMIC CHARGES
-----------------------
   0 N :   -0.225314
   1 N :    0.004362
   2 C :    0.047614
   3 C :   -0.264932
   4 C :   -0.254829
   5 C :   -0.148144
   6 C :   -0.228638
   7 C :   -0.179992
   8 C :   -0.303902
   9 C :    0.260953
  10 C :    0.191500
  11 C :   -0.295446
  12 C :   -0.111210
  13 C :   -0.173647
  14 C :   -0.233270
  15 C :   -0.074505
  16 C :   -0.092057
  17 C :   -0.142512
  18 C :   -0.099041
  19 C :   -0.163657
  20 C :   -0.167436
  21 H :    0.157203
  22 H :    0.137156
  23 H :    0.158129
  24 H :    0.146937
  25 H :    0.167030
  26 H :    0.135401
  27 H :    0.132648
  28 H :    0.143963
  29 H :    0.138556
  30 H :    0.132228
  31 H :    0.130659
  32 H :    0.156972
  33 H :    0.157212
  34 H :    0.129353
  35 H :    0.134241
  36 H :    0.143782
  37 H :    0.150468
  38 H :    0.152728
  39 H :    0.141504
  40 H :    0.146058
  41 H :    0.145852
  42 H :    0.214727
  43 H :    0.244720
  44 C :   -0.428028
  45 H :    0.142115
  46 H :    0.157595
  47 H :    0.141536
  48 H :    0.143356
Sum of atomic charges:    1.0000000

LOEWDIN ATOMIC CHARGES
----------------------
   0 N :    0.082336
   1 N :    0.282725
   2 C :   -0.226358
   3 C :   -0.218791
   4 C :   -0.213137
   5 C :   -0.249952
   6 C :   -0.265900
   7 C :   -0.265596
   8 C :   -0.204781
   9 C :   -0.162604
  10 C :   -0.151140
  11 C :   -0.110644
  12 C :   -0.140414
  13 C :   -0.115528
  14 C :   -0.124059
  15 C :   -0.114901
  16 C :   -0.086197
  17 C :   -0.102427
  18 C :   -0.126908
  19 C :   -0.152192
  20 C :   -0.147920
  21 H :    0.156811
  22 H :    0.140649
  23 H :    0.153345
  24 H :    0.155376
  25 H :    0.148318
  26 H :    0.133868
  27 H :    0.137840
  28 H :    0.131475
  29 H :    0.132864
  30 H :    0.136678
  31 H :    0.133724
  32 H :    0.143930
  33 H :    0.155273
  34 H :    0.151025
  35 H :    0.151621
  36 H :    0.149637
  37 H :    0.153931
  38 H :    0.155467
  39 H :    0.151535
  40 H :    0.150109
  41 H :    0.149418
  42 H :    0.215835
  43 H :    0.212816
  44 C :   -0.239653
  45 H :    0.127118
  46 H :    0.140337
  47 H :    0.129069
  48 H :    0.155972

  Mayer bond orders larger than 0.100000
B(  0-N ,  5-C ) :   0.8809 B(  0-N ,  6-C ) :   0.9051 B(  0-N ,  7-C ) :   0.9481
B(  0-N , 42-H ) :   0.1299 B(  1-N ,  2-C ) :   0.8492 B(  1-N ,  9-C ) :   0.8691
B(  1-N , 42-H ) :   0.8416 B(  1-N , 43-H ) :   0.8836 B(  2-C ,  3-C ) :   0.9568
B(  2-C ,  4-C ) :   0.9864 B(  2-C , 21-H ) :   0.9531 B(  3-C ,  5-C ) :   0.9900
B(  3-C , 22-H ) :   0.9662 B(  3-C , 23-H ) :   0.9694 B(  4-C ,  6-C ) :   0.9833
B(  4-C , 24-H ) :   0.9618 B(  4-C , 25-H ) :   0.9661 B(  5-C , 26-H ) :   0.9594
B(  5-C , 27-H ) :   0.9874 B(  6-C , 28-H ) :   0.9940 B(  6-C , 29-H ) :   0.9690
B(  7-C ,  8-C ) :   0.9579 B(  7-C , 30-H ) :   0.9823 B(  7-C , 31-H ) :   0.9701
B(  8-C , 10-C ) :   0.8574 B(  8-C , 32-H ) :   1.0033 B(  8-C , 33-H ) :   0.9792
B(  9-C , 11-C ) :   1.3627 B(  9-C , 12-C ) :   1.3736 B( 10-C , 13-C ) :   1.3055
B( 10-C , 14-C ) :   1.3418 B( 11-C , 12-C ) :   0.1120 B( 11-C , 15-C ) :   1.4212
B( 11-C , 34-H ) :   0.9913 B( 12-C , 16-C ) :   1.4435 B( 12-C , 44-C ) :   0.9353
B( 13-C , 18-C ) :   1.4566 B( 13-C , 35-H ) :   0.9920 B( 14-C , 19-C ) :   1.4157
B( 14-C , 36-H ) :   0.9768 B( 15-C , 17-C ) :   1.4062 B( 15-C , 37-H ) :   0.9664
B( 16-C , 17-C ) :   1.4204 B( 16-C , 48-H ) :   0.9620 B( 17-C , 38-H ) :   0.9676
B( 18-C , 20-C ) :   1.3484 B( 18-C , 39-H ) :   0.9798 B( 19-C , 20-C ) :   1.3729
B( 19-C , 40-H ) :   0.9969 B( 20-C , 41-H ) :   0.9908 B( 44-C , 45-H ) :   0.9788
B( 44-C , 46-H ) :   0.9779 B( 44-C , 47-H ) :   0.9753

Dispersion correction           -0.121907655
FINAL SINGLE POINT ENERGY      -888.469586734256

DIPOLE MOMENT
-------------
                                X             Y             Z
Electronic contribution:      7.94507      -4.94520       0.70009
Nuclear contribution   :     -8.16493       6.04739      -0.50249
                        -----------------------------------------
Total Dipole Moment    :     -0.21986       1.10219       0.19759
                        -----------------------------------------
Magnitude (a.u.)       :      1.14114
Magnitude (Debye)      :      2.90054

Dispersion correction in the Hessian             ... done   (      2.4 sec)

VIBRATIONAL FREQUENCIES
-----------------------

Scaling factor for frequencies =  1.000000000  (already applied!)

   0:         0.00 cm**-1
   1:         0.00 cm**-1
   2:         0.00 cm**-1
   3:         0.00 cm**-1
   4:         0.00 cm**-1
   5:         0.00 cm**-1
   6:        33.64 cm**-1
   7:        43.14 cm**-1
   8:        49.20 cm**-1
   9:        84.02 cm**-1
  10:        88.06 cm**-1
  11:       103.05 cm**-1
  12:       118.22 cm**-1
  13:       119.86 cm**-1
  14:       134.41 cm**-1
  15:       171.83 cm**-1
  16:       181.25 cm**-1
  17:       204.53 cm**-1
  18:       232.54 cm**-1
  19:       275.73 cm**-1
  20:       287.09 cm**-1
  21:       307.54 cm**-1
  22:       337.85 cm**-1
  23:       360.69 cm**-1
  24:       371.57 cm**-1
  25:       387.07 cm**-1
  26:       423.45 cm**-1
  27:       437.58 cm**-1
  28:       453.19 cm**-1
  29:       469.20 cm**-1
  30:       497.85 cm**-1
  31:       510.18 cm**-1
  32:       522.35 cm**-1
  33:       536.88 cm**-1
  34:       567.30 cm**-1
  35:       618.16 cm**-1
  36:       631.15 cm**-1
  37:       637.90 cm**-1
  38:       720.48 cm**-1
  39:       734.07 cm**-1
  40:       740.54 cm**-1
  41:       775.65 cm**-1
  42:       784.29 cm**-1
  43:       790.32 cm**-1
  44:       793.15 cm**-1
  45:       802.95 cm**-1
  46:       830.35 cm**-1
  47:       849.66 cm**-1
  48:       862.42 cm**-1
  49:       883.86 cm**-1
  50:       894.16 cm**-1
  51:       905.58 cm**-1
  52:       923.41 cm**-1
  53:       940.21 cm**-1
  54:       953.25 cm**-1
  55:       975.65 cm**-1
  56:       987.49 cm**-1
  57:       992.52 cm**-1
  58:      1016.10 cm**-1
  59:      1019.63 cm**-1
  60:      1025.14 cm**-1
  61:      1026.14 cm**-1
  62:      1031.19 cm**-1
  63:      1036.36 cm**-1
  64:      1043.93 cm**-1
  65:      1046.48 cm**-1
  66:      1068.35 cm**-1
  67:      1071.21 cm**-1
  68:      1073.32 cm**-1
  69:      1088.68 cm**-1
  70:      1114.70 cm**-1
  71:      1128.63 cm**-1
  72:      1132.33 cm**-1
  73:      1156.63 cm**-1
  74:      1168.94 cm**-1
  75:      1183.74 cm**-1
  76:      1190.02 cm**-1
  77:      1205.61 cm**-1
  78:      1213.74 cm**-1
  79:      1216.86 cm**-1
  80:      1218.40 cm**-1
  81:      1220.44 cm**-1
  82:      1243.46 cm**-1
  83:      1264.81 cm**-1
  84:      1271.37 cm**-1
  85:      1280.94 cm**-1
  86:      1288.84 cm**-1
  87:      1303.61 cm**-1
  88:      1318.29 cm**-1
  89:      1323.12 cm**-1
  90:      1327.05 cm**-1
  91:      1341.26 cm**-1
  92:      1356.80 cm**-1
  93:      1366.24 cm**-1
  94:      1377.26 cm**-1
  95:      1384.03 cm**-1
  96:      1395.10 cm**-1
  97:      1401.59 cm**-1
  98:      1413.40 cm**-1
  99:      1423.33 cm**-1
 100:      1432.40 cm**-1
 101:      1438.18 cm**-1
 102:      1447.14 cm**-1
 103:      1489.22 cm**-1
 104:      1497.62 cm**-1
 105:      1503.03 cm**-1
 106:      1503.69 cm**-1
 107:      1507.24 cm**-1
 108:      1508.60 cm**-1
 109:      1517.21 cm**-1
 110:      1520.90 cm**-1
 111:      1526.78 cm**-1
 112:      1540.21 cm**-1
 113:      1553.49 cm**-1
 114:      1560.79 cm**-1
 115:      1665.90 cm**-1
 116:      1670.44 cm**-1
 117:      1679.02 cm**-1
 118:      1689.34 cm**-1
 119:      1709.56 cm**-1
 120:      3014.37 cm**-1
 121:      3017.03 cm**-1
 122:      3021.79 cm**-1
 123:      3056.76 cm**-1
 124:      3073.47 cm**-1
 125:      3079.99 cm**-1
 126:      3091.15 cm**-1
 127:      3100.43 cm**-1
 128:      3106.03 cm**-1
 129:      3108.82 cm**-1
 130:      3118.31 cm**-1
 131:      3133.47 cm**-1
 132:      3136.36 cm**-1
 133:      3148.91 cm**-1
 134:      3150.52 cm**-1
 135:      3166.89 cm**-1
 136:      3168.91 cm**-1
 137:      3188.25 cm**-1
 138:      3189.84 cm**-1
 139:      3203.66 cm**-1
 140:      3208.29 cm**-1
 141:      3213.23 cm**-1
 142:      3213.85 cm**-1
 143:      3224.09 cm**-1
 144:      3225.26 cm**-1
 145:      3236.28 cm**-1
 146:      3466.78 cm**-1

IR SPECTRUM
-----------

 Mode   freq       eps      Int      T**2         TX        TY        TZ
       cm**-1   L/(mol*cm) km/mol    a.u.
----------------------------------------------------------------------------
  6:     33.64   0.000018    0.09  0.000166  ( 0.007355 -0.003680 -0.009911)
  7:     43.14   0.000134    0.68  0.000971  ( 0.024716 -0.012942  0.013885)
  8:     49.20   0.000164    0.83  0.001040  (-0.025330 -0.019646  0.003581)
  9:     84.02   0.000083    0.42  0.000309  ( 0.011111 -0.013433 -0.002361)
 10:     88.06   0.000294    1.49  0.001042  ( 0.002768 -0.031975 -0.003438)
 11:    103.05   0.000130    0.66  0.000393  ( 0.009817 -0.005163 -0.016425)
 12:    118.22   0.000504    2.55  0.001330  ( 0.010032  0.034046  0.008408)
 13:    119.86   0.000020    0.10  0.000052  (-0.006969 -0.001880  0.000154)
 14:    134.41   0.000052    0.26  0.000122  (-0.002134  0.009197  0.005695)
 15:    171.83   0.001213    6.13  0.002202  (-0.043913  0.007491  0.014758)
 16:    181.25   0.000330    1.67  0.000567  (-0.009166  0.019305  0.010525)
 17:    204.53   0.000027    0.13  0.000041  (-0.003510  0.004613  0.002659)
 18:    232.54   0.000098    0.49  0.000131  (-0.008064 -0.004867 -0.006529)
 19:    275.73   0.000895    4.52  0.001013  (-0.022585  0.019613  0.010891)
 20:    287.09   0.000035    0.17  0.000038  (-0.004323  0.002895  0.003230)
 21:    307.54   0.000188    0.95  0.000191  (-0.011868 -0.004879  0.005142)
 22:    337.85   0.001414    7.15  0.001306  (-0.001476  0.034354  0.011117)
 23:    360.69   0.000215    1.09  0.000186  ( 0.009905  0.004674 -0.008146)
 24:    371.57   0.004405   22.26  0.003700  ( 0.058397 -0.002468 -0.016839)
 25:    387.07   0.000264    1.33  0.000213  ( 0.012494  0.007209  0.002152)
 26:    423.45   0.000005    0.03  0.000004  (-0.000515 -0.001650 -0.000819)
 27:    437.58   0.000208    1.05  0.000148  (-0.004414  0.010872 -0.003236)
 28:    453.19   0.001765    8.92  0.001215  ( 0.027217  0.021465 -0.003722)
 29:    469.20   0.002194   11.09  0.001459  (-0.025892  0.021288  0.018323)
 30:    497.85   0.000182    0.92  0.000114  ( 0.010297  0.000817 -0.002748)
 31:    510.18   0.001332    6.73  0.000815  ( 0.000018 -0.025041 -0.013710)
 32:    522.35   0.003829   19.35  0.002288  ( 0.046574  0.010471 -0.002962)
 33:    536.88   0.000585    2.95  0.000340  (-0.016223  0.004631  0.007427)
 34:    567.30   0.000358    1.81  0.000197  (-0.004550 -0.013269 -0.000537)
 35:    618.16   0.002662   13.45  0.001344  (-0.005746 -0.033257 -0.014304)
 36:    631.15   0.000207    1.05  0.000102  ( 0.008149  0.005351  0.002700)
 37:    637.90   0.000003    0.01  0.000001  ( 0.000337 -0.000317 -0.001047)
 38:    720.48   0.000671    3.39  0.000290  (-0.007021 -0.015518  0.000553)
 39:    734.07   0.006713   33.92  0.002854  (-0.004199 -0.046670 -0.025654)
 40:    740.54   0.001260    6.37  0.000531  (-0.016041  0.011660  0.011743)
 41:    775.65   0.004153   20.99  0.001671  (-0.002618  0.036682  0.017846)
 42:    784.29   0.014945   75.53  0.005947  ( 0.013756  0.066436  0.036655)
 43:    790.32   0.000439    2.22  0.000173  ( 0.010180  0.007803  0.002993)
 44:    793.15   0.000668    3.37  0.000263  (-0.006097  0.012616  0.008145)
 45:    802.95   0.004449   22.48  0.001729  ( 0.029983 -0.023285 -0.016962)
 46:    830.35   0.001145    5.79  0.000430  (-0.020200 -0.000426  0.004710)
 47:    849.66   0.000851    4.30  0.000313  ( 0.015549  0.002715 -0.007970)
 48:    862.42   0.000131    0.66  0.000048  ( 0.005554 -0.002710 -0.003051)
 49:    883.86   0.003588   18.13  0.001267  (-0.033006 -0.001317  0.013260)
 50:    894.16   0.000582    2.94  0.000203  (-0.009659 -0.000704  0.010449)
 51:    905.58   0.000153    0.77  0.000053  (-0.000003 -0.006615  0.002970)
 52:    923.41   0.000259    1.31  0.000088  (-0.007039  0.000591  0.006132)
 53:    940.21   0.001998   10.10  0.000663  (-0.022915  0.008326  0.008294)
 54:    953.25   0.002170   10.97  0.000710  ( 0.024177  0.003218 -0.010752)
 55:    975.65   0.000591    2.99  0.000189  ( 0.013651  0.000960 -0.001378)
 56:    987.49   0.000480    2.43  0.000152  ( 0.002655 -0.011966 -0.001186)
 57:    992.52   0.000040    0.20  0.000013  (-0.001265  0.000855 -0.003221)
 58:   1016.10   0.000391    1.98  0.000120  ( 0.004736 -0.000644  0.009865)
 59:   1019.63   0.002848   14.39  0.000872  ( 0.021086 -0.020559 -0.002080)
 60:   1025.14   0.000209    1.06  0.000064  (-0.000019  0.007962 -0.000546)
 61:   1026.14   0.001662    8.40  0.000506  ( 0.000914 -0.021496 -0.006534)
 62:   1031.19   0.000085    0.43  0.000026  ( 0.000541 -0.001991  0.004621)
 63:   1036.36   0.000006    0.03  0.000002  (-0.000433  0.001084 -0.000625)
 64:   1043.93   0.000003    0.02  0.000001  (-0.000424  0.000820  0.000376)
 65:   1046.48   0.001416    7.15  0.000422  ( 0.014194 -0.001187  0.014808)
 66:   1068.35   0.000269    1.36  0.000079  ( 0.008115  0.003529 -0.000638)
 67:   1071.21   0.004015   20.29  0.001170  (-0.031542  0.007249  0.011050)
 68:   1073.32   0.000312    1.58  0.000091  (-0.001098  0.007552  0.005695)
 69:   1088.68   0.000772    3.90  0.000221  (-0.006446  0.009437 -0.009522)
 70:   1114.70   0.000378    1.91  0.000106  (-0.000412  0.007804  0.006692)
 71:   1128.63   0.003404   17.20  0.000941  ( 0.026344  0.008743 -0.013064)
 72:   1132.33   0.007486   37.83  0.002063  ( 0.045090  0.001140  0.005353)
 73:   1156.63   0.001108    5.60  0.000299  ( 0.014643 -0.005725  0.007199)
 74:   1168.94   0.001624    8.21  0.000434  (-0.001860 -0.001665 -0.020675)
 75:   1183.74   0.000140    0.71  0.000037  (-0.001852 -0.000759  0.005733)
 76:   1190.02   0.000444    2.25  0.000116  ( 0.008400  0.005205 -0.004342)
 77:   1205.61   0.006578   33.24  0.001703  ( 0.017497  0.037286 -0.002509)
 78:   1213.74   0.000343    1.73  0.000088  (-0.008284  0.004404  0.000286)
 79:   1216.86   0.001892    9.56  0.000485  (-0.014044  0.016048  0.005523)
 80:   1218.40   0.000929    4.69  0.000238  ( 0.008851  0.011229 -0.005781)
 81:   1220.44   0.001213    6.13  0.000310  ( 0.010788  0.012340  0.006451)
 82:   1243.46   0.000220    1.11  0.000055  (-0.002546 -0.006295  0.002997)
 83:   1264.81   0.001805    9.12  0.000445  ( 0.007281 -0.014763  0.013206)
 84:   1271.37   0.000667    3.37  0.000164  ( 0.007445 -0.006572 -0.008076)
 85:   1280.94   0.000830    4.20  0.000202  (-0.013087  0.003479  0.004345)
 86:   1288.84   0.003082   15.57  0.000746  ( 0.021796 -0.015934 -0.004144)
 87:   1303.61   0.000309    1.56  0.000074  ( 0.003654  0.000439  0.007769)
 88:   1318.29   0.000509    2.57  0.000121  (-0.006461 -0.004743  0.007504)
 89:   1323.12   0.002023   10.22  0.000477  ( 0.021553 -0.003096  0.001751)
 90:   1327.05   0.002824   14.27  0.000664  ( 0.019892 -0.002280 -0.016221)
 91:   1341.26   0.000383    1.93  0.000089  ( 0.004637 -0.007343  0.003691)
 92:   1356.80   0.001848    9.34  0.000425  (-0.014486  0.014354  0.003018)
 93:   1366.24   0.000307    1.55  0.000070  (-0.004134  0.000227 -0.007282)
 94:   1377.26   0.001393    7.04  0.000316  (-0.007451  0.005958  0.014986)
 95:   1384.03   0.001841    9.30  0.000415  (-0.011176  0.016995 -0.001149)
 96:   1395.10   0.000763    3.86  0.000171  (-0.003040  0.012277  0.003271)
 97:   1401.59   0.001332    6.73  0.000297  ( 0.009035  0.013811 -0.004928)
 98:   1413.40   0.012407   62.70  0.002739  (-0.051163  0.010882 -0.001821)
 99:   1423.33   0.006734   34.03  0.001476  ( 0.029041 -0.019588 -0.015787)
100:   1432.40   0.003229   16.32  0.000703  (-0.021403  0.008037  0.013444)
101:   1438.18   0.003002   15.17  0.000651  (-0.000886 -0.025342  0.002913)
102:   1447.14   0.002212   11.18  0.000477  (-0.018006  0.011424  0.004717)
103:   1489.22   0.000575    2.91  0.000121  (-0.007287 -0.007201  0.003945)
104:   1497.62   0.003055   15.44  0.000637  (-0.006078  0.009290  0.022657)
105:   1503.03   0.001380    6.98  0.000287  (-0.003545 -0.016380  0.002386)
106:   1503.69   0.000603    3.05  0.000125  (-0.000065 -0.009076 -0.006534)
107:   1507.24   0.001549    7.83  0.000321  (-0.005015 -0.017190  0.000280)
108:   1508.60   0.001863    9.41  0.000385  ( 0.005105  0.005243  0.018214)
109:   1517.21   0.000459    2.32  0.000094  (-0.007067 -0.006647 -0.000589)
110:   1520.90   0.003962   20.02  0.000813  ( 0.010424 -0.009518  0.024771)
111:   1526.78   0.003095   15.64  0.000633  (-0.024255 -0.005649  0.003533)
112:   1540.21   0.006202   31.34  0.001257  ( 0.033983 -0.000879 -0.010052)
113:   1553.49   0.002782   14.06  0.000559  (-0.022026 -0.001268  0.008487)
114:   1560.79   0.004945   24.99  0.000989  ( 0.013263 -0.005685  0.027938)
115:   1665.90   0.000230    1.16  0.000043  ( 0.002768 -0.001735  0.005694)
116:   1670.44   0.015589   78.78  0.002912  (-0.016740 -0.045516 -0.023673)
117:   1679.02   0.005323   26.90  0.000989  (-0.007638 -0.025098 -0.017350)
118:   1689.34   0.001684    8.51  0.000311  (-0.012650  0.006635  0.010347)
119:   1709.56   0.000665    3.36  0.000121  ( 0.005567  0.009106  0.002739)
120:   3014.37   0.015681   79.25  0.001623  ( 0.038743 -0.007943 -0.007700)
121:   3017.03   0.002513   12.70  0.000260  (-0.000263  0.001618 -0.016039)
122:   3021.79   0.023317  117.83  0.002408  ( 0.044343  0.012978 -0.016531)
123:   3056.76   0.002885   14.58  0.000295  (-0.011177  0.000590 -0.013011)
124:   3073.47   0.062466  315.68  0.006342  (-0.065789 -0.042112 -0.015517)
125:   3079.99   0.016534   83.56  0.001675  ( 0.033949  0.021203 -0.008552)
126:   3091.15   0.000861    4.35  0.000087  ( 0.008475  0.003599  0.001465)
127:   3100.43   0.000718    3.63  0.000072  (-0.006911  0.001263 -0.004790)
128:   3106.03   0.002246   11.35  0.000226  (-0.006104 -0.010613 -0.008704)
129:   3108.82   0.003410   17.23  0.000342  ( 0.012631 -0.010150  0.008929)
130:   3118.31   0.001614    8.16  0.000162  ( 0.001985 -0.012349 -0.002256)
131:   3133.47   0.001912    9.66  0.000190  ( 0.006228 -0.009217  0.008164)
132:   3136.36   0.001275    6.44  0.000127  ( 0.007236 -0.008545 -0.001214)
133:   3148.91   0.000997    5.04  0.000099  ( 0.004641 -0.008261  0.002997)
134:   3150.52   0.002127   10.75  0.000211  (-0.012637  0.002873 -0.006536)
135:   3166.89   0.002042   10.32  0.000201  (-0.000896 -0.007462 -0.012029)
136:   3168.91   0.000870    4.40  0.000086  (-0.009091 -0.001059  0.001387)
137:   3188.25   0.000746    3.77  0.000073  ( 0.005734  0.001899 -0.006041)
138:   3189.84   0.000553    2.79  0.000054  (-0.006159  0.002544 -0.003109)
139:   3203.66   0.000418    2.11  0.000041  ( 0.005959 -0.001310  0.001862)
140:   3208.29   0.000299    1.51  0.000029  ( 0.004261  0.002536 -0.002115)
141:   3213.23   0.001103    5.57  0.000107  ( 0.003088 -0.003998  0.009034)
142:   3213.85   0.000241    1.22  0.000023  (-0.004268 -0.001596 -0.001629)
143:   3224.09   0.000757    3.83  0.000073  (-0.007993 -0.003062  0.000245)
144:   3225.26   0.000576    2.91  0.000056  (-0.007443 -0.000322 -0.000526)
145:   3236.28   0.000145    0.73  0.000014  (-0.000868  0.001820 -0.003146)
146:   3466.78   0.009149   46.23  0.000824  (-0.005277  0.014452  0.024224)

--------------------------
THERMOCHEMISTRY AT 298.15K
--------------------------

Temperature         ... 298.15 K
Pressure            ... 1.00 atm
Total Mass          ... 295.45 AMU

Throughout the following assumptions are being made:
  (1) The electronic state is orbitally nondegenerate
  (2) There are no thermally accessible electronically excited states
  (3) Hindered rotations indicated by low frequency modes are not
      treated as such but are treated as vibrations and this may
      cause some error
  (4) All equations used are the standard statistical mechanics
      equations for an ideal gas
  (5) All vibrations are strictly harmonic

freq.      33.64  E(vib)   ...       0.55
freq.      43.14  E(vib)   ...       0.53
freq.      49.20  E(vib)   ...       0.52
freq.      84.02  E(vib)   ...       0.48
freq.      88.06  E(vib)   ...       0.48
freq.     103.05  E(vib)   ...       0.46
freq.     118.22  E(vib)   ...       0.44
freq.     119.86  E(vib)   ...       0.44
freq.     134.41  E(vib)   ...       0.42
freq.     171.83  E(vib)   ...       0.38
freq.     181.25  E(vib)   ...       0.37
freq.     204.53  E(vib)   ...       0.35
freq.     232.54  E(vib)   ...       0.32
freq.     275.73  E(vib)   ...       0.28
freq.     287.09  E(vib)   ...       0.27
freq.     307.54  E(vib)   ...       0.26
freq.     337.85  E(vib)   ...       0.24
freq.     360.69  E(vib)   ...       0.22
freq.     371.57  E(vib)   ...       0.21
freq.     387.07  E(vib)   ...       0.20
freq.     423.45  E(vib)   ...       0.18
freq.     437.58  E(vib)   ...       0.17
freq.     453.19  E(vib)   ...       0.16
freq.     469.20  E(vib)   ...       0.16
freq.     497.85  E(vib)   ...       0.14
freq.     510.18  E(vib)   ...       0.14
freq.     522.35  E(vib)   ...       0.13
freq.     536.88  E(vib)   ...       0.12
freq.     567.30  E(vib)   ...       0.11
freq.     618.16  E(vib)   ...       0.09
freq.     631.15  E(vib)   ...       0.09
freq.     637.90  E(vib)   ...       0.09
freq.     720.48  E(vib)   ...       0.07
freq.     734.07  E(vib)   ...       0.06
freq.     740.54  E(vib)   ...       0.06
freq.     775.65  E(vib)   ...       0.05
freq.     784.29  E(vib)   ...       0.05
freq.     790.32  E(vib)   ...       0.05
freq.     793.15  E(vib)   ...       0.05
freq.     802.95  E(vib)   ...       0.05
freq.     830.35  E(vib)   ...       0.04
freq.     849.66  E(vib)   ...       0.04
freq.     862.42  E(vib)   ...       0.04
freq.     883.86  E(vib)   ...       0.04
freq.     894.16  E(vib)   ...       0.03
freq.     905.58  E(vib)   ...       0.03
freq.     923.41  E(vib)   ...       0.03
freq.     940.21  E(vib)   ...       0.03
freq.     953.25  E(vib)   ...       0.03
freq.     975.65  E(vib)   ...       0.03
freq.     987.49  E(vib)   ...       0.02
freq.     992.52  E(vib)   ...       0.02
freq.    1016.10  E(vib)   ...       0.02
freq.    1019.63  E(vib)   ...       0.02
freq.    1025.14  E(vib)   ...       0.02
freq.    1026.14  E(vib)   ...       0.02
freq.    1031.19  E(vib)   ...       0.02
freq.    1036.36  E(vib)   ...       0.02
freq.    1043.93  E(vib)   ...       0.02
freq.    1046.48  E(vib)   ...       0.02
freq.    1068.35  E(vib)   ...       0.02
freq.    1071.21  E(vib)   ...       0.02
freq.    1073.32  E(vib)   ...       0.02
freq.    1088.68  E(vib)   ...       0.02
freq.    1114.70  E(vib)   ...       0.01
freq.    1128.63  E(vib)   ...       0.01
freq.    1132.33  E(vib)   ...       0.01
freq.    1156.63  E(vib)   ...       0.01
freq.    1168.94  E(vib)   ...       0.01
freq.    1183.74  E(vib)   ...       0.01
freq.    1190.02  E(vib)   ...       0.01
freq.    1205.61  E(vib)   ...       0.01
freq.    1213.74  E(vib)   ...       0.01
freq.    1216.86  E(vib)   ...       0.01
freq.    1218.40  E(vib)   ...       0.01
freq.    1220.44  E(vib)   ...       0.01
freq.    1243.46  E(vib)   ...       0.01
freq.    1264.81  E(vib)   ...       0.01
freq.    1271.37  E(vib)   ...       0.01
freq.    1280.94  E(vib)   ...       0.01
freq.    1288.84  E(vib)   ...       0.01
freq.    1303.61  E(vib)   ...       0.01
freq.    1318.29  E(vib)   ...       0.01
freq.    1323.12  E(vib)   ...       0.01
freq.    1327.05  E(vib)   ...       0.01
freq.    1341.26  E(vib)   ...       0.01
freq.    1356.80  E(vib)   ...       0.01
freq.    1366.24  E(vib)   ...       0.01
freq.    1377.26  E(vib)   ...       0.01
freq.    1384.03  E(vib)   ...       0.00
freq.    1395.10  E(vib)   ...       0.00
freq.    1401.59  E(vib)   ...       0.00
freq.    1413.40  E(vib)   ...       0.00
freq.    1423.33  E(vib)   ...       0.00
freq.    1432.40  E(vib)   ...       0.00
freq.    1438.18  E(vib)   ...       0.00
freq.    1447.14  E(vib)   ...       0.00
freq.    1489.22  E(vib)   ...       0.00
freq.    1497.62  E(vib)   ...       0.00
freq.    1503.03  E(vib)   ...       0.00
freq.    1503.69  E(vib)   ...       0.00
freq.    1507.24  E(vib)   ...       0.00
freq.    1508.60  E(vib)   ...       0.00
freq.    1517.21  E(vib)   ...       0.00
freq.    1520.90  E(vib)   ...       0.00
freq.    1526.78  E(vib)   ...       0.00
freq.    1540.21  E(vib)   ...       0.00
freq.    1553.49  E(vib)   ...       0.00
freq.    1560.79  E(vib)   ...       0.00
freq.    1665.90  E(vib)   ...       0.00
freq.    1670.44  E(vib)   ...       0.00
freq.    1679.02  E(vib)   ...       0.00
freq.    1689.34  E(vib)   ...       0.00
freq.    1709.56  E(vib)   ...       0.00
freq.    3014.37  E(vib)   ...       0.00
freq.    3017.03  E(vib)   ...       0.00
freq.    3021.79  E(vib)   ...       0.00
freq.    3056.76  E(vib)   ...       0.00
freq.    3073.47  E(vib)   ...       0.00
freq.    3079.99  E(vib)   ...       0.00
freq.    3091.15  E(vib)   ...       0.00
freq.    3100.43  E(vib)   ...       0.00
freq.    3106.03  E(vib)   ...       0.00
freq.    3108.82  E(vib)   ...       0.00
freq.    3118.31  E(vib)   ...       0.00
freq.    3133.47  E(vib)   ...       0.00
freq.    3136.36  E(vib)   ...       0.00
freq.    3148.91  E(vib)   ...       0.00
freq.    3150.52  E(vib)   ...       0.00
freq.    3166.89  E(vib)   ...       0.00
freq.    3168.91  E(vib)   ...       0.00
freq.    3188.25  E(vib)   ...       0.00
freq.    3189.84  E(vib)   ...       0.00
freq.    3203.66  E(vib)   ...       0.00
freq.    3208.29  E(vib)   ...       0.00
freq.    3213.23  E(vib)   ...       0.00
freq.    3213.85  E(vib)   ...       0.00
freq.    3224.09  E(vib)   ...       0.00
freq.    3225.26  E(vib)   ...       0.00
freq.    3236.28  E(vib)   ...       0.00
freq.    3466.78  E(vib)   ...       0.00

------------
INNER ENERGY

Rotational constants in cm-1:     0.013821     0.008764     0.007407

                             ****ORCA TERMINATED NORMALLY****
TOTAL RUN TIME: 0 days 8 hours 16 minutes 16 seconds 125 msec
