                         Program Version 5.0.4 -  RELEASE  -
|  1> ! wB97X-D3BJ TightOpt Freq def2-TZVP def2/J RIJCOSX TightSCF defgrid3 CHELPG
|  2> %maxcore 3400
|  3>
|  4> %pal nprocs 8
|  5> end
|  6>
|  7> %chelpg
|  8> grid 0.1
|  9> rmax 3.0
| 10> end
| 11>
| 12> *xyz 1 1
| 13> N          -2.34663000       0.28916400       0.68710200
| 14> N           0.00870900       0.59650800      -0.56449600
| 15> C          -0.82702000       1.85449000      -0.72104600
| 16> C          -2.11707600       1.47328700      -1.44403500
| 17> C          -1.13915900       2.42848200       0.65735600
| 18> C          -3.08921900       0.76389800      -0.47899700
| 19> C          -1.95167600       1.42694500       1.51284300
| 20> C          -2.97895900      -0.79937800       1.42221500
| 21> C          -3.02387600      -2.09347600       0.59235700
| 22> C           1.32750300       0.78232900       0.03978800
| 23> C          -1.73223200      -2.31931900      -0.15781900
| 24> C           1.52718200       0.41317200       1.35496800
| 25> C           2.33758700       1.33493700      -0.73212600
| 26> C          -0.54094700      -2.55779700       0.53034100
| 27> C          -1.68658300      -2.23346700      -1.54730900
| 28> C           2.78510500       0.61762800       1.91114600
| 29> C           3.59931800       1.53510200      -0.18193100
| 30> C           3.80331200       1.17132400       1.15141300
| 31> C           0.66412400      -2.68223700      -0.14820800
| 32> C          -0.48223800      -2.36222800      -2.23485100
| 33> C           0.70013000      -2.57659500      -1.53568700
| 34> H          -0.22992400       2.55229200      -1.30859500
| 35> H          -1.88743900       0.83472700      -2.30221100
| 36> H          -2.56593500       2.38404300      -1.84371600
| 37> H          -1.71012100       3.34362900       0.48878200
| 38> H          -0.22204200       2.72184100       1.16966400
| 39> H          -3.89611900       1.44340300      -0.16806100
| 40> H          -3.55850300      -0.08008400      -0.97981300
| 41> H          -1.34439600       1.05389800       2.34045000
| 42> H          -2.82606800       1.92583600       1.95485800
| 43> H          -2.37610200      -0.96745200       2.31887300
| 44> H          -3.99104100      -0.53494100       1.76134400
| 45> H          -3.85628100      -2.06921300      -0.11392700
| 46> H          -3.22334400      -2.92622200       1.27163500
| 47> H           0.72851500      -0.03881800       1.93116200
| 48> H          -0.55810800      -2.65309900       1.61224000
| 49> H          -2.60568600      -2.07807100      -2.10391500
| 50> H           2.96902600       0.33659700       2.94146800
| 51> H           4.78145600       1.32093600       1.59629800
| 52> H           1.57807100      -2.86914700       0.40435900
| 53> H          -0.47236100      -2.31403700      -3.31873400
| 54> H           1.63850300      -2.68802400      -2.06719500
| 55> H          -0.61739600      -0.01690500       0.00689400
| 56> H           0.10406300       0.12279300      -1.46506400
| 57> H           4.39216114       1.95626880      -0.76409789
| 58> C           2.07256121       1.71816613      -2.19994641
| 59> H           1.48492379       2.61168166      -2.23476397
| 60> H           3.00434473       1.88441009      -2.69898792
| 61> H           1.54427388       0.92467609      -2.68593617
| 62> *
| 63>
| 64>
| 65>                          ****END OF INPUT****
 Total Charge           Charge          ....    1
 Multiplicity           Mult            ....    1
 Number of Electrons    NEL             ....  160
Dispersion correction           -0.121900915
FINAL SINGLE POINT ENERGY      -888.465079680355
Dispersion correction            ... done
Dispersion correction           -0.121926983
FINAL SINGLE POINT ENERGY      -888.468328432058
Dispersion correction            ... done
Dispersion correction           -0.121718819
FINAL SINGLE POINT ENERGY      -888.469062683782
Dispersion correction            ... done
FINAL SINGLE POINT ENERGY      -888.469290874353
FINAL SINGLE POINT ENERGY      -888.469323800633
FINAL SINGLE POINT ENERGY      -888.469308262884
FINAL SINGLE POINT ENERGY      -888.469447595714
FINAL SINGLE POINT ENERGY      -888.469489730392
FINAL SINGLE POINT ENERGY      -888.469538225370
FINAL SINGLE POINT ENERGY      -888.469566683681
FINAL SINGLE POINT ENERGY      -888.469575517064
FINAL SINGLE POINT ENERGY      -888.469580558513
FINAL SINGLE POINT ENERGY      -888.469582639827
Dispersion correction           -0.121877946
FINAL SINGLE POINT ENERGY      -888.469583031952
Dispersion correction            ... done
Dispersion correction           -0.121885009
FINAL SINGLE POINT ENERGY      -888.469583288673
Dispersion correction            ... done
                    ***********************HURRAY********************

CARTESIAN COORDINATES (ANGSTROEM)
---------------------------------
  N     -2.397716    0.272661    0.714771
  N     -0.035511    0.677792   -0.499090
  C     -0.885384    1.933926   -0.586019
  C     -2.160039    1.578261   -1.347798
  C     -1.226795    2.428526    0.816021
  C     -3.124769    0.775101   -0.449239
  C     -2.057583    1.383237    1.598594
  C     -3.016977   -0.865000    1.383524
  C     -2.993727   -2.123317    0.499674
  C      1.312050    0.836083    0.043579
  C     -1.674540   -2.276708   -0.220628
  C      1.509524    0.636252    1.399327
  C      2.348197    1.164615   -0.825966
  C     -0.491850   -2.483904    0.492907
  C     -1.597665   -2.155784   -1.606084
  C      2.780744    0.792862    1.930292
  C      3.616048    1.313248   -0.268128
  C      3.832991    1.137130    1.091718
  C      0.733443   -2.547225   -0.157122
  C     -0.372370   -2.224380   -2.265327
  C      0.799270   -2.410764   -1.540878
  H     -0.293078    2.674701   -1.122316
  H     -1.908218    1.013088   -2.250330
  H     -2.626654    2.506234   -1.682142
  H     -1.795260    3.351433    0.685301
  H     -0.321572    2.697509    1.361453
  H     -3.971856    1.399988   -0.130640
  H     -3.538250   -0.062831   -1.006450
  H     -1.481261    0.986997    2.437716
  H     -2.957896    1.850841    2.022629
  H     -2.437825   -1.052117    2.291734
  H     -4.047409   -0.647013    1.699652
  H     -3.805708   -2.096382   -0.229914
  H     -3.184626   -2.990306    1.137374
  H      0.679787    0.345010    2.033328
  H     -0.531097   -2.602013    1.571855
  H     -2.507880   -2.021574   -2.182488
  H      2.948155    0.640789    2.989691
  H      4.830682    1.260148    1.496537
  H      1.640220   -2.709550    0.414667
  H     -0.338041   -2.151978   -3.347454
  H      1.754341   -2.476968   -2.050051
  H     -0.636815    0.038074    0.067840
  H      0.019284    0.237789   -1.419681
  H      4.447369    1.566672   -0.916751
  C      2.127098    1.313598   -2.309715
  H      1.414529    2.107947   -2.546983
  H      3.063099    1.556722   -2.810649
  H      1.755928    0.382534   -2.752253

 Multiplicity           Mult            ....    1
 Number of Electrons    NEL             ....  160
 Basis Dimension        Dim             ....  844

ORBITAL ENERGIES
----------------

  NO   OCC          E(Eh)            E(eV)
   0   2.0000     -14.645825      -398.5331
   1   2.0000     -14.541763      -395.7015
   2   2.0000     -10.469630      -284.8931
   3   2.0000     -10.452083      -284.4156
   4   2.0000     -10.427633      -283.7503
   5   2.0000     -10.425438      -283.6906
   6   2.0000     -10.420583      -283.5585
   7   2.0000     -10.418982      -283.5149
   8   2.0000     -10.412183      -283.3299
   9   2.0000     -10.410760      -283.2912
  10   2.0000     -10.409207      -283.2489
  11   2.0000     -10.402873      -283.0766
  12   2.0000     -10.398995      -282.9710
  13   2.0000     -10.398741      -282.9641
  14   2.0000     -10.397968      -282.9431
  15   2.0000     -10.396821      -282.9119
  16   2.0000     -10.394365      -282.8450
  17   2.0000     -10.392540      -282.7954
  18   2.0000     -10.391135      -282.7572
  19   2.0000     -10.390712      -282.7457
  20   2.0000     -10.390540      -282.7410
  21   2.0000     -10.389431      -282.7108
  22   2.0000      -1.276845       -34.7447
  23   2.0000      -1.204485       -32.7757
  24   2.0000      -1.129912       -30.7465
  25   2.0000      -1.120049       -30.4781
  26   2.0000      -1.077955       -29.3326
  27   2.0000      -1.043290       -28.3894
  28   2.0000      -1.039038       -28.2737
  29   2.0000      -1.026996       -27.9460
  30   2.0000      -1.005878       -27.3713
  31   2.0000      -0.999214       -27.1900
  32   2.0000      -0.977260       -26.5926
  33   2.0000      -0.951021       -25.8786
  34   2.0000      -0.918736       -25.0001
  35   2.0000      -0.902933       -24.5701
  36   2.0000      -0.883159       -24.0320
  37   2.0000      -0.869578       -23.6624
  38   2.0000      -0.851725       -23.1766
  39   2.0000      -0.849267       -23.1097
  40   2.0000      -0.827088       -22.5062
  41   2.0000      -0.818254       -22.2658
  42   2.0000      -0.803193       -21.8560
  43   2.0000      -0.783056       -21.3080
  44   2.0000      -0.764501       -20.8031
  45   2.0000      -0.746596       -20.3159
  46   2.0000      -0.737452       -20.0671
  47   2.0000      -0.725200       -19.7337
  48   2.0000      -0.717716       -19.5301
  49   2.0000      -0.700185       -19.0530
  50   2.0000      -0.696795       -18.9608
  51   2.0000      -0.691209       -18.8087
  52   2.0000      -0.685943       -18.6655
  53   2.0000      -0.672054       -18.2875
  54   2.0000      -0.670528       -18.2460
  55   2.0000      -0.667788       -18.1714
  56   2.0000      -0.661836       -18.0095
  57   2.0000      -0.652185       -17.7469
  58   2.0000      -0.648894       -17.6573
  59   2.0000      -0.643313       -17.5054
  60   2.0000      -0.638978       -17.3875
  61   2.0000      -0.627135       -17.0652
  62   2.0000      -0.625223       -17.0132
  63   2.0000      -0.620342       -16.8804
  64   2.0000      -0.606959       -16.5162
  65   2.0000      -0.603267       -16.4157
  66   2.0000      -0.602368       -16.3913
  67   2.0000      -0.586984       -15.9726
  68   2.0000      -0.579653       -15.7732
  69   2.0000      -0.578165       -15.7327
  70   2.0000      -0.576515       -15.6878
  71   2.0000      -0.565982       -15.4011
  72   2.0000      -0.561083       -15.2678
  73   2.0000      -0.555536       -15.1169
  74   2.0000      -0.549547       -14.9539
  75   2.0000      -0.484053       -13.1717
  76   2.0000      -0.470232       -12.7957
  77   2.0000      -0.467749       -12.7281
  78   2.0000      -0.461581       -12.5602
  79   2.0000      -0.454031       -12.3548
  80   0.0000      -0.069203        -1.8831
  81   0.0000      -0.061028        -1.6607
  82   0.0000      -0.055681        -1.5152
  83   0.0000      -0.048460        -1.3187
  84   0.0000      -0.023645        -0.6434

MULLIKEN ATOMIC CHARGES
-----------------------
   0 N :   -0.224917
   1 N :    0.004155
   2 C :    0.047228
   3 C :   -0.265544
   4 C :   -0.254372
   5 C :   -0.148131
   6 C :   -0.229100
   7 C :   -0.180420
   8 C :   -0.303439
   9 C :    0.260904
  10 C :    0.192050
  11 C :   -0.295554
  12 C :   -0.110741
  13 C :   -0.173869
  14 C :   -0.234261
  15 C :   -0.074338
  16 C :   -0.091345
  17 C :   -0.143020
  18 C :   -0.098076
  19 C :   -0.161276
  20 C :   -0.169850
  21 H :    0.157618
  22 H :    0.137041
  23 H :    0.158276
  24 H :    0.146946
  25 H :    0.167109
  26 H :    0.135443
  27 H :    0.132847
  28 H :    0.143812
  29 H :    0.138564
  30 H :    0.132348
  31 H :    0.130657
  32 H :    0.156759
  33 H :    0.157076
  34 H :    0.129458
  35 H :    0.134094
  36 H :    0.143759
  37 H :    0.150529
  38 H :    0.152762
  39 H :    0.141367
  40 H :    0.146043
  41 H :    0.145992
  42 H :    0.213811
  43 H :    0.245616
  44 H :    0.143360
  45 C :   -0.428851
  46 H :    0.141897
  47 H :    0.157530
  48 H :    0.142051
Sum of atomic charges:    1.0000000

LOEWDIN ATOMIC CHARGES
----------------------
   0 N :    0.082296
   1 N :    0.282826
   2 C :   -0.226287
   3 C :   -0.218851
   4 C :   -0.213183
   5 C :   -0.249958
   6 C :   -0.266179
   7 C :   -0.265589
   8 C :   -0.204751
   9 C :   -0.162569
  10 C :   -0.151134
  11 C :   -0.110646
  12 C :   -0.140424
  13 C :   -0.115854
  14 C :   -0.123935
  15 C :   -0.114879
  16 C :   -0.086171
  17 C :   -0.102386
  18 C :   -0.127145
  19 C :   -0.151723
  20 C :   -0.148127
  21 H :    0.156817
  22 H :    0.140640
  23 H :    0.153304
  24 H :    0.155446
  25 H :    0.148356
  26 H :    0.133882
  27 H :    0.137943
  28 H :    0.131359
  29 H :    0.132880
  30 H :    0.136685
  31 H :    0.133732
  32 H :    0.143924
  33 H :    0.155259
  34 H :    0.150996
  35 H :    0.151572
  36 H :    0.149666
  37 H :    0.153933
  38 H :    0.155476
  39 H :    0.151509
  40 H :    0.150138
  41 H :    0.149387
  42 H :    0.215923
  43 H :    0.212982
  44 H :    0.155983
  45 C :   -0.239717
  46 H :    0.127014
  47 H :    0.140348
  48 H :    0.129233

  Mayer bond orders larger than 0.100000
B(  0-N ,  5-C ) :   0.8813 B(  0-N ,  6-C ) :   0.9048 B(  0-N ,  7-C ) :   0.9479
B(  0-N , 42-H ) :   0.1290 B(  1-N ,  2-C ) :   0.8499 B(  1-N ,  9-C ) :   0.8686
B(  1-N , 42-H ) :   0.8425 B(  1-N , 43-H ) :   0.8837 B(  2-C ,  3-C ) :   0.9563
B(  2-C ,  4-C ) :   0.9870 B(  2-C , 21-H ) :   0.9529 B(  3-C ,  5-C ) :   0.9903
B(  3-C , 22-H ) :   0.9661 B(  3-C , 23-H ) :   0.9695 B(  4-C ,  6-C ) :   0.9829
B(  4-C , 24-H ) :   0.9616 B(  4-C , 25-H ) :   0.9661 B(  5-C , 26-H ) :   0.9594
B(  5-C , 27-H ) :   0.9873 B(  6-C , 28-H ) :   0.9942 B(  6-C , 29-H ) :   0.9690
B(  7-C ,  8-C ) :   0.9580 B(  7-C , 30-H ) :   0.9824 B(  7-C , 31-H ) :   0.9701
B(  8-C , 10-C ) :   0.8581 B(  8-C , 32-H ) :   1.0033 B(  8-C , 33-H ) :   0.9790
B(  9-C , 11-C ) :   1.3627 B(  9-C , 12-C ) :   1.3734 B( 10-C , 13-C ) :   1.3045
B( 10-C , 14-C ) :   1.3423 B( 11-C , 12-C ) :   0.1119 B( 11-C , 15-C ) :   1.4218
B( 11-C , 34-H ) :   0.9909 B( 12-C , 16-C ) :   1.4438 B( 12-C , 45-C ) :   0.9348
B( 13-C , 18-C ) :   1.4566 B( 13-C , 35-H ) :   0.9920 B( 14-C , 19-C ) :   1.4162
B( 14-C , 36-H ) :   0.9769 B( 15-C , 17-C ) :   1.4065 B( 15-C , 37-H ) :   0.9662
B( 16-C , 17-C ) :   1.4205 B( 16-C , 44-H ) :   0.9617 B( 17-C , 38-H ) :   0.9675
B( 18-C , 20-C ) :   1.3482 B( 18-C , 39-H ) :   0.9799 B( 19-C , 20-C ) :   1.3729
B( 19-C , 40-H ) :   0.9966 B( 20-C , 41-H ) :   0.9909 B( 45-C , 46-H ) :   0.9791
B( 45-C , 47-H ) :   0.9778 B( 45-C , 48-H ) :   0.9753

Dispersion correction           -0.121881589
FINAL SINGLE POINT ENERGY      -888.469583129012

DIPOLE MOMENT
-------------
                                X             Y             Z
Electronic contribution:      8.09247      -4.54844       1.30089
Nuclear contribution   :     -8.31061       5.65666      -1.47636
                        -----------------------------------------
Total Dipole Moment    :     -0.21814       1.10822      -0.17547
                        -----------------------------------------
Magnitude (a.u.)       :      1.14303
Magnitude (Debye)      :      2.90536

Dispersion correction in the Hessian             ... done   (      2.8 sec)

VIBRATIONAL FREQUENCIES
-----------------------

Scaling factor for frequencies =  1.000000000  (already applied!)

   0:         0.00 cm**-1
   1:         0.00 cm**-1
   2:         0.00 cm**-1
   3:         0.00 cm**-1
   4:         0.00 cm**-1
   5:         0.00 cm**-1
   6:        33.65 cm**-1
   7:        43.11 cm**-1
   8:        49.06 cm**-1
   9:        84.36 cm**-1
  10:        87.18 cm**-1
  11:       103.25 cm**-1
  12:       118.36 cm**-1
  13:       120.17 cm**-1
  14:       134.86 cm**-1
  15:       171.84 cm**-1
  16:       181.11 cm**-1
  17:       204.33 cm**-1
  18:       232.41 cm**-1
  19:       275.70 cm**-1
  20:       286.96 cm**-1
  21:       307.83 cm**-1
  22:       337.81 cm**-1
  23:       360.07 cm**-1
  24:       371.22 cm**-1
  25:       386.65 cm**-1
  26:       423.47 cm**-1
  27:       437.58 cm**-1
  28:       453.04 cm**-1
  29:       469.16 cm**-1
  30:       497.81 cm**-1
  31:       509.99 cm**-1
  32:       522.38 cm**-1
  33:       536.84 cm**-1
  34:       567.38 cm**-1
  35:       618.24 cm**-1
  36:       631.22 cm**-1
  37:       637.90 cm**-1
  38:       720.21 cm**-1
  39:       734.06 cm**-1
  40:       740.49 cm**-1
  41:       775.52 cm**-1
  42:       784.07 cm**-1
  43:       790.34 cm**-1
  44:       793.11 cm**-1
  45:       802.78 cm**-1
  46:       830.39 cm**-1
  47:       849.65 cm**-1
  48:       862.47 cm**-1
  49:       884.04 cm**-1
  50:       894.10 cm**-1
  51:       905.56 cm**-1
  52:       923.53 cm**-1
  53:       940.08 cm**-1
  54:       953.33 cm**-1
  55:       975.65 cm**-1
  56:       987.59 cm**-1
  57:       992.55 cm**-1
  58:      1016.10 cm**-1
  59:      1019.69 cm**-1
  60:      1025.18 cm**-1
  61:      1026.22 cm**-1
  62:      1031.17 cm**-1
  63:      1036.37 cm**-1
  64:      1043.89 cm**-1
  65:      1046.49 cm**-1
  66:      1068.39 cm**-1
  67:      1071.39 cm**-1
  68:      1073.37 cm**-1
  69:      1088.75 cm**-1
  70:      1114.71 cm**-1
  71:      1128.60 cm**-1
  72:      1132.31 cm**-1
  73:      1156.70 cm**-1
  74:      1169.02 cm**-1
  75:      1183.70 cm**-1
  76:      1189.99 cm**-1
  77:      1205.61 cm**-1
  78:      1213.74 cm**-1
  79:      1216.90 cm**-1
  80:      1218.44 cm**-1
  81:      1220.52 cm**-1
  82:      1243.44 cm**-1
  83:      1264.72 cm**-1
  84:      1271.26 cm**-1
  85:      1281.03 cm**-1
  86:      1288.78 cm**-1
  87:      1303.79 cm**-1
  88:      1318.35 cm**-1
  89:      1323.27 cm**-1
  90:      1327.12 cm**-1
  91:      1341.16 cm**-1
  92:      1356.78 cm**-1
  93:      1366.19 cm**-1
  94:      1377.31 cm**-1
  95:      1384.17 cm**-1
  96:      1395.17 cm**-1
  97:      1401.65 cm**-1
  98:      1413.38 cm**-1
  99:      1423.33 cm**-1
 100:      1432.37 cm**-1
 101:      1438.19 cm**-1
 102:      1447.17 cm**-1
 103:      1489.26 cm**-1
 104:      1497.67 cm**-1
 105:      1502.96 cm**-1
 106:      1503.61 cm**-1
 107:      1507.22 cm**-1
 108:      1508.58 cm**-1
 109:      1517.24 cm**-1
 110:      1520.89 cm**-1
 111:      1526.84 cm**-1
 112:      1540.24 cm**-1
 113:      1553.53 cm**-1
 114:      1560.87 cm**-1
 115:      1665.92 cm**-1
 116:      1670.38 cm**-1
 117:      1679.01 cm**-1
 118:      1689.35 cm**-1
 119:      1709.65 cm**-1
 120:      3014.20 cm**-1
 121:      3016.94 cm**-1
 122:      3021.98 cm**-1
 123:      3056.62 cm**-1
 124:      3075.32 cm**-1
 125:      3080.33 cm**-1
 126:      3091.07 cm**-1
 127:      3100.61 cm**-1
 128:      3105.75 cm**-1
 129:      3108.58 cm**-1
 130:      3118.27 cm**-1
 131:      3133.36 cm**-1
 132:      3136.35 cm**-1
 133:      3148.75 cm**-1
 134:      3150.31 cm**-1
 135:      3166.33 cm**-1
 136:      3168.91 cm**-1
 137:      3188.20 cm**-1
 138:      3189.79 cm**-1
 139:      3203.68 cm**-1
 140:      3208.36 cm**-1
 141:      3213.31 cm**-1
 142:      3214.27 cm**-1
 143:      3224.27 cm**-1
 144:      3225.26 cm**-1
 145:      3236.41 cm**-1
 146:      3467.16 cm**-1

IR SPECTRUM
-----------

 Mode   freq       eps      Int      T**2         TX        TY        TZ
       cm**-1   L/(mol*cm) km/mol    a.u.
----------------------------------------------------------------------------
  6:     33.65   0.000018    0.09  0.000165  ( 0.006160 -0.006882 -0.008938)
  7:     43.11   0.000134    0.68  0.000968  (-0.026657  0.007526 -0.014167)
  8:     49.06   0.000164    0.83  0.001043  ( 0.024318  0.016335 -0.013584)
  9:     84.36   0.000092    0.46  0.000339  ( 0.011057 -0.014674  0.001324)
 10:     87.18   0.000289    1.46  0.001035  ( 0.002523 -0.031200  0.007421)
 11:    103.25   0.000133    0.67  0.000402  (-0.007481  0.011213  0.014832)
 12:    118.36   0.000498    2.51  0.001312  (-0.009944 -0.034375  0.005601)
 13:    120.17   0.000028    0.14  0.000073  ( 0.007971  0.002209 -0.002229)
 14:    134.86   0.000053    0.27  0.000123  ( 0.001723 -0.010687 -0.002423)
 15:    171.84   0.001187    6.00  0.002156  ( 0.041363 -0.012775 -0.016785)
 16:    181.11   0.000343    1.73  0.000591  (-0.008878  0.022153  0.004604)
 17:    204.33   0.000024    0.12  0.000036  (-0.002856  0.005165  0.001185)
 18:    232.41   0.000093    0.47  0.000125  ( 0.008408  0.006606  0.003292)
 19:    275.70   0.000909    4.59  0.001029  (-0.021722  0.022701  0.006442)
 20:    286.96   0.000028    0.14  0.000030  ( 0.003533 -0.003338 -0.002534)
 21:    307.83   0.000192    0.97  0.000195  ( 0.010960  0.002792 -0.008173)
 22:    337.81   0.001414    7.15  0.001306  ( 0.000574 -0.036100  0.001652)
 23:    360.07   0.000241    1.22  0.000209  (-0.009357 -0.001453  0.010915)
 24:    371.22   0.004385   22.16  0.003686  (-0.055517  0.009708  0.022579)
 25:    386.65   0.000255    1.29  0.000206  (-0.012146 -0.007400  0.001969)
 26:    423.47   0.000005    0.02  0.000003  ( 0.000586  0.001727  0.000152)
 27:    437.58   0.000204    1.03  0.000146  (-0.004815  0.009099 -0.006288)
 28:    453.04   0.001760    8.89  0.001212  (-0.025863 -0.018041  0.014762)
 29:    469.16   0.002185   11.04  0.001453  (-0.023557  0.027066  0.012880)
 30:    497.81   0.000184    0.93  0.000115  ( 0.009810 -0.000432 -0.004316)
 31:    509.99   0.001331    6.73  0.000814  ( 0.001071  0.028257  0.003829)
 32:    522.38   0.003814   19.28  0.002279  (-0.045388 -0.007586  0.012688)
 33:    536.84   0.000590    2.98  0.000343  ( 0.015294 -0.007247 -0.007503)
 34:    567.38   0.000360    1.82  0.000198  (-0.004182 -0.012544  0.004790)
 35:    618.24   0.002660   13.44  0.001343  (-0.006592 -0.036041 -0.000720)
 36:    631.22   0.000206    1.04  0.000102  ( 0.008243  0.005820 -0.000429)
 37:    637.90   0.000003    0.01  0.000001  ( 0.000173 -0.000719 -0.000876)
 38:    720.21   0.000670    3.39  0.000291  (-0.006685 -0.014007  0.007044)
 39:    734.06   0.006657   33.64  0.002830  ( 0.006062  0.052442  0.006561)
 40:    740.49   0.001252    6.33  0.000528  (-0.014701  0.015275  0.008846)
 41:    775.52   0.004219   21.32  0.001698  ( 0.000963 -0.040993 -0.004048)
 42:    784.07   0.014786   74.72  0.005885  ( 0.017031  0.074330  0.008350)
 43:    790.34   0.000432    2.18  0.000171  (-0.010485 -0.007655  0.001472)
 44:    793.11   0.000735    3.71  0.000289  ( 0.005064 -0.015713 -0.004083)
 45:    802.78   0.004588   23.18  0.001783  (-0.028091  0.029296  0.011662)
 46:    830.39   0.001124    5.68  0.000422  ( 0.019129 -0.001844 -0.007284)
 47:    849.65   0.000827    4.18  0.000304  ( 0.013993 -0.000614 -0.010378)
 48:    862.47   0.000126    0.64  0.000046  (-0.005018  0.003697  0.002595)
 49:    884.04   0.003536   17.87  0.001248  (-0.030594  0.004292  0.017138)
 50:    894.10   0.000576    2.91  0.000201  (-0.008112  0.003127  0.011206)
 51:    905.56   0.000156    0.79  0.000054  (-0.000444  0.005182 -0.005161)
 52:    923.53   0.000260    1.32  0.000088  ( 0.006138 -0.002734 -0.006544)
 53:    940.08   0.002031   10.26  0.000674  ( 0.021956 -0.011308 -0.008021)
 54:    953.33   0.002148   10.86  0.000703  (-0.022259  0.001403  0.014341)
 55:    975.65   0.000589    2.98  0.000188  (-0.013242 -0.000104  0.003621)
 56:    987.59   0.000487    2.46  0.000154  ( 0.002967 -0.011714  0.002805)
 57:    992.55   0.000038    0.19  0.000012  ( 0.001514  0.000477  0.003071)
 58:   1016.10   0.000395    2.00  0.000121  ( 0.006154  0.002639  0.008747)
 59:   1019.69   0.002835   14.33  0.000868  ( 0.021094 -0.020401  0.002562)
 60:   1025.18   0.000206    1.04  0.000063  ( 0.000209 -0.007220  0.003241)
 61:   1026.22   0.001649    8.33  0.000501  ( 0.000385 -0.022360  0.001166)
 62:   1031.17   0.000086    0.44  0.000026  ( 0.001136 -0.000448  0.004966)
 63:   1036.37   0.000006    0.03  0.000002  ( 0.000574 -0.000834  0.000958)
 64:   1043.89   0.000004    0.02  0.000001  (-0.000531  0.000904 -0.000013)
 65:   1046.49   0.001403    7.09  0.000418  ( 0.015922  0.003910  0.012228)
 66:   1068.39   0.000274    1.38  0.000080  (-0.007950 -0.002853  0.002922)
 67:   1071.39   0.003979   20.11  0.001159  ( 0.029757 -0.011420 -0.011959)
 68:   1073.37   0.000308    1.55  0.000089  ( 0.000326 -0.008977 -0.002952)
 69:   1088.75   0.000768    3.88  0.000220  ( 0.007911 -0.005603  0.011236)
 70:   1114.71   0.000377    1.91  0.000106  (-0.000213 -0.009664 -0.003479)
 71:   1128.60   0.003407   17.22  0.000942  ( 0.024151  0.002955 -0.018710)
 72:   1132.31   0.007440   37.60  0.002051  (-0.045215 -0.001930  0.001558)
 73:   1156.70   0.001100    5.56  0.000297  ( 0.015568 -0.003114  0.006685)
 74:   1169.02   0.001629    8.23  0.000435  ( 0.004713  0.008793  0.018311)
 75:   1183.70   0.000141    0.71  0.000037  (-0.000998  0.001357  0.005848)
 76:   1189.99   0.000443    2.24  0.000116  (-0.007601 -0.003073  0.006990)
 77:   1205.61   0.006553   33.12  0.001696  ( 0.015854  0.033556 -0.017857)
 78:   1213.74   0.000340    1.72  0.000087  (-0.008236  0.004420 -0.000197)
 79:   1216.90   0.001863    9.42  0.000478  (-0.013482  0.017144  0.001448)
 80:   1218.44   0.000892    4.51  0.000228  ( 0.007201  0.008173 -0.010473)
 81:   1220.52   0.001245    6.29  0.000318  ( 0.011221  0.013875 -0.000051)
 82:   1243.44   0.000224    1.13  0.000056  (-0.001961 -0.004793  0.005431)
 83:   1264.72   0.001820    9.20  0.000449  (-0.009591  0.009425 -0.016378)
 84:   1271.26   0.000650    3.28  0.000159  (-0.006276  0.009213  0.005933)
 85:   1281.03   0.000866    4.38  0.000211  ( 0.012673 -0.005119 -0.004916)
 86:   1288.78   0.003054   15.43  0.000739  (-0.021348  0.016786  0.001375)
 87:   1303.79   0.000310    1.57  0.000074  ( 0.004870  0.002812  0.006532)
 88:   1318.35   0.000495    2.50  0.000117  ( 0.005128  0.001678 -0.009388)
 89:   1323.27   0.002004   10.13  0.000473  ( 0.021555 -0.002812  0.000157)
 90:   1327.12   0.002852   14.41  0.000671  ( 0.017693 -0.008436 -0.016927)
 91:   1341.16   0.000385    1.95  0.000090  (-0.005254  0.005715 -0.005414)
 92:   1356.78   0.001814    9.17  0.000417  (-0.014033  0.014842 -0.000332)
 93:   1366.19   0.000305    1.54  0.000070  ( 0.005084  0.002112  0.006267)
 94:   1377.31   0.001405    7.10  0.000318  (-0.005680  0.011017  0.012838)
 95:   1384.17   0.001848    9.34  0.000417  (-0.011715  0.015804 -0.005453)
 96:   1395.17   0.000748    3.78  0.000167  ( 0.002820 -0.012602  0.000714)
 97:   1401.65   0.001352    6.83  0.000301  ( 0.008266  0.010932 -0.010641)
 98:   1413.38   0.012455   62.94  0.002750  ( 0.051259 -0.010980 -0.001399)
 99:   1423.33   0.006677   33.74  0.001464  (-0.026778  0.024649  0.011797)
100:   1432.37   0.003205   16.19  0.000698  (-0.019451  0.012708  0.012583)
101:   1438.19   0.003001   15.16  0.000651  (-0.000202  0.022652 -0.011745)
102:   1447.17   0.002142   10.82  0.000462  (-0.017237  0.012540  0.002729)
103:   1489.26   0.000572    2.89  0.000120  ( 0.006434  0.005134 -0.007225)
104:   1497.67   0.003075   15.54  0.000641  ( 0.003169 -0.017009 -0.018478)
105:   1502.96   0.001306    6.60  0.000271  (-0.002776 -0.013767  0.008594)
106:   1503.61   0.000642    3.25  0.000133  ( 0.000748  0.011238  0.002538)
107:   1507.22   0.001563    7.90  0.000324  (-0.004469 -0.015862  0.007210)
108:   1508.58   0.001899    9.59  0.000393  (-0.007464 -0.011531 -0.014285)
109:   1517.24   0.000450    2.27  0.000093  (-0.006828 -0.006115  0.002925)
110:   1520.89   0.003944   19.93  0.000809  ( 0.013946 -0.000599  0.024788)
111:   1526.84   0.003116   15.74  0.000637  (-0.023492 -0.003537  0.008507)
112:   1540.24   0.006156   31.11  0.001247  (-0.032192  0.005000  0.013634)
113:   1553.53   0.002781   14.06  0.000559  (-0.020615  0.002320  0.011328)
114:   1560.87   0.004964   25.09  0.000993  (-0.017102 -0.004223 -0.026119)
115:   1665.92   0.000238    1.20  0.000045  ( 0.003621  0.000579  0.005575)
116:   1670.38   0.015651   79.09  0.002924  (-0.018662 -0.050614 -0.003716)
117:   1679.01   0.005199   26.27  0.000966  (-0.009113 -0.029063 -0.006212)
118:   1689.35   0.001698    8.58  0.000314  (-0.011307  0.010170  0.009079)
119:   1709.65   0.000645    3.26  0.000118  ( 0.005558  0.009214 -0.001427)
120:   3014.20   0.015133   76.48  0.001567  ( 0.036991 -0.011077 -0.008701)
121:   3016.94   0.002666   13.47  0.000276  (-0.000662 -0.004658 -0.015925)
122:   3021.98   0.022801  115.23  0.002355  ( 0.040816  0.005014 -0.025757)
123:   3056.62   0.002765   13.97  0.000282  (-0.012358 -0.003543 -0.010818)
124:   3075.32   0.050307  254.23  0.005105  (-0.059077 -0.039823  0.005362)
125:   3080.33   0.029392  148.54  0.002978  ( 0.044047  0.024122 -0.021348)
126:   3091.07   0.000672    3.40  0.000068  ( 0.007607  0.003072 -0.000728)
127:   3100.61   0.000611    3.09  0.000061  (-0.006863 -0.000297 -0.003776)
128:   3105.75   0.002360   11.93  0.000237  ( 0.007485  0.012953  0.003652)
129:   3108.58   0.003497   17.67  0.000351  (-0.014229  0.006866 -0.010070)
130:   3118.27   0.001644    8.31  0.000164  (-0.001958  0.012503 -0.002084)
131:   3133.36   0.001940    9.81  0.000193  ( 0.007622 -0.005983  0.009968)
132:   3136.35   0.001244    6.29  0.000124  ( 0.007045 -0.008564  0.000900)
133:   3148.75   0.001044    5.28  0.000103  ( 0.005867 -0.006540  0.005127)
134:   3150.31   0.002089   10.55  0.000207  ( 0.013375 -0.000450  0.005272)
135:   3166.33   0.002044   10.33  0.000201  (-0.002332 -0.011190 -0.008412)
136:   3168.91   0.000870    4.40  0.000086  ( 0.008785  0.000319 -0.002903)
137:   3188.20   0.000744    3.76  0.000073  (-0.004733  0.000493  0.007085)
138:   3189.79   0.000561    2.83  0.000055  ( 0.006664 -0.001462  0.002882)
139:   3203.68   0.000405    2.05  0.000039  ( 0.006111 -0.000651  0.001288)
140:   3208.36   0.000286    1.45  0.000028  ( 0.003659  0.001482 -0.003498)
141:   3213.31   0.001062    5.37  0.000103  (-0.004034  0.000726 -0.009294)
142:   3214.27   0.000272    1.38  0.000026  (-0.004632 -0.001906 -0.001155)
143:   3224.27   0.000778    3.93  0.000075  (-0.007927 -0.002657  0.002317)
144:   3225.26   0.000573    2.89  0.000055  (-0.007406 -0.000307  0.000676)
145:   3236.41   0.000144    0.73  0.000014  ( 0.001258 -0.000658  0.003439)
146:   3467.16   0.008984   45.40  0.000809  ( 0.002426 -0.021796 -0.018101)

--------------------------
THERMOCHEMISTRY AT 298.15K
--------------------------

Temperature         ... 298.15 K
Pressure            ... 1.00 atm
Total Mass          ... 295.45 AMU

Throughout the following assumptions are being made:
  (1) The electronic state is orbitally nondegenerate
  (2) There are no thermally accessible electronically excited states
  (3) Hindered rotations indicated by low frequency modes are not
      treated as such but are treated as vibrations and this may
      cause some error
  (4) All equations used are the standard statistical mechanics
      equations for an ideal gas
  (5) All vibrations are strictly harmonic

freq.      33.65  E(vib)   ...       0.55
freq.      43.11  E(vib)   ...       0.53
freq.      49.06  E(vib)   ...       0.53
freq.      84.36  E(vib)   ...       0.48
freq.      87.18  E(vib)   ...       0.48
freq.     103.25  E(vib)   ...       0.46
freq.     118.36  E(vib)   ...       0.44
freq.     120.17  E(vib)   ...       0.44
freq.     134.86  E(vib)   ...       0.42
freq.     171.84  E(vib)   ...       0.38
freq.     181.11  E(vib)   ...       0.37
freq.     204.33  E(vib)   ...       0.35
freq.     232.41  E(vib)   ...       0.32
freq.     275.70  E(vib)   ...       0.28
freq.     286.96  E(vib)   ...       0.27
freq.     307.83  E(vib)   ...       0.26
freq.     337.81  E(vib)   ...       0.24
freq.     360.07  E(vib)   ...       0.22
freq.     371.22  E(vib)   ...       0.21
freq.     386.65  E(vib)   ...       0.20
freq.     423.47  E(vib)   ...       0.18
freq.     437.58  E(vib)   ...       0.17
freq.     453.04  E(vib)   ...       0.16
freq.     469.16  E(vib)   ...       0.16
freq.     497.81  E(vib)   ...       0.14
freq.     509.99  E(vib)   ...       0.14
freq.     522.38  E(vib)   ...       0.13
freq.     536.84  E(vib)   ...       0.12
freq.     567.38  E(vib)   ...       0.11
freq.     618.24  E(vib)   ...       0.09
freq.     631.22  E(vib)   ...       0.09
freq.     637.90  E(vib)   ...       0.09
freq.     720.21  E(vib)   ...       0.07
freq.     734.06  E(vib)   ...       0.06
freq.     740.49  E(vib)   ...       0.06
freq.     775.52  E(vib)   ...       0.05
freq.     784.07  E(vib)   ...       0.05
freq.     790.34  E(vib)   ...       0.05
freq.     793.11  E(vib)   ...       0.05
freq.     802.78  E(vib)   ...       0.05
freq.     830.39  E(vib)   ...       0.04
freq.     849.65  E(vib)   ...       0.04
freq.     862.47  E(vib)   ...       0.04
freq.     884.04  E(vib)   ...       0.04
freq.     894.10  E(vib)   ...       0.03
freq.     905.56  E(vib)   ...       0.03
freq.     923.53  E(vib)   ...       0.03
freq.     940.08  E(vib)   ...       0.03
freq.     953.33  E(vib)   ...       0.03
freq.     975.65  E(vib)   ...       0.03
freq.     987.59  E(vib)   ...       0.02
freq.     992.55  E(vib)   ...       0.02
freq.    1016.10  E(vib)   ...       0.02
freq.    1019.69  E(vib)   ...       0.02
freq.    1025.18  E(vib)   ...       0.02
freq.    1026.22  E(vib)   ...       0.02
freq.    1031.17  E(vib)   ...       0.02
freq.    1036.37  E(vib)   ...       0.02
freq.    1043.89  E(vib)   ...       0.02
freq.    1046.49  E(vib)   ...       0.02
freq.    1068.39  E(vib)   ...       0.02
freq.    1071.39  E(vib)   ...       0.02
freq.    1073.37  E(vib)   ...       0.02
freq.    1088.75  E(vib)   ...       0.02
freq.    1114.71  E(vib)   ...       0.01
freq.    1128.60  E(vib)   ...       0.01
freq.    1132.31  E(vib)   ...       0.01
freq.    1156.70  E(vib)   ...       0.01
freq.    1169.02  E(vib)   ...       0.01
freq.    1183.70  E(vib)   ...       0.01
freq.    1189.99  E(vib)   ...       0.01
freq.    1205.61  E(vib)   ...       0.01
freq.    1213.74  E(vib)   ...       0.01
freq.    1216.90  E(vib)   ...       0.01
freq.    1218.44  E(vib)   ...       0.01
freq.    1220.52  E(vib)   ...       0.01
freq.    1243.44  E(vib)   ...       0.01
freq.    1264.72  E(vib)   ...       0.01
freq.    1271.26  E(vib)   ...       0.01
freq.    1281.03  E(vib)   ...       0.01
freq.    1288.78  E(vib)   ...       0.01
freq.    1303.79  E(vib)   ...       0.01
freq.    1318.35  E(vib)   ...       0.01
freq.    1323.27  E(vib)   ...       0.01
freq.    1327.12  E(vib)   ...       0.01
freq.    1341.16  E(vib)   ...       0.01
freq.    1356.78  E(vib)   ...       0.01
freq.    1366.19  E(vib)   ...       0.01
freq.    1377.31  E(vib)   ...       0.01
freq.    1384.17  E(vib)   ...       0.00
freq.    1395.17  E(vib)   ...       0.00
freq.    1401.65  E(vib)   ...       0.00
freq.    1413.38  E(vib)   ...       0.00
freq.    1423.33  E(vib)   ...       0.00
freq.    1432.37  E(vib)   ...       0.00
freq.    1438.19  E(vib)   ...       0.00
freq.    1447.17  E(vib)   ...       0.00
freq.    1489.26  E(vib)   ...       0.00
freq.    1497.67  E(vib)   ...       0.00
freq.    1502.96  E(vib)   ...       0.00
freq.    1503.61  E(vib)   ...       0.00
freq.    1507.22  E(vib)   ...       0.00
freq.    1508.58  E(vib)   ...       0.00
freq.    1517.24  E(vib)   ...       0.00
freq.    1520.89  E(vib)   ...       0.00
freq.    1526.84  E(vib)   ...       0.00
freq.    1540.24  E(vib)   ...       0.00
freq.    1553.53  E(vib)   ...       0.00
freq.    1560.87  E(vib)   ...       0.00
freq.    1665.92  E(vib)   ...       0.00
freq.    1670.38  E(vib)   ...       0.00
freq.    1679.01  E(vib)   ...       0.00
freq.    1689.35  E(vib)   ...       0.00
freq.    1709.65  E(vib)   ...       0.00
freq.    3014.20  E(vib)   ...       0.00
freq.    3016.94  E(vib)   ...       0.00
freq.    3021.98  E(vib)   ...       0.00
freq.    3056.62  E(vib)   ...       0.00
freq.    3075.32  E(vib)   ...       0.00
freq.    3080.33  E(vib)   ...       0.00
freq.    3091.07  E(vib)   ...       0.00
freq.    3100.61  E(vib)   ...       0.00
freq.    3105.75  E(vib)   ...       0.00
freq.    3108.58  E(vib)   ...       0.00
freq.    3118.27  E(vib)   ...       0.00
freq.    3133.36  E(vib)   ...       0.00
freq.    3136.35  E(vib)   ...       0.00
freq.    3148.75  E(vib)   ...       0.00
freq.    3150.31  E(vib)   ...       0.00
freq.    3166.33  E(vib)   ...       0.00
freq.    3168.91  E(vib)   ...       0.00
freq.    3188.20  E(vib)   ...       0.00
freq.    3189.79  E(vib)   ...       0.00
freq.    3203.68  E(vib)   ...       0.00
freq.    3208.36  E(vib)   ...       0.00
freq.    3213.31  E(vib)   ...       0.00
freq.    3214.27  E(vib)   ...       0.00
freq.    3224.27  E(vib)   ...       0.00
freq.    3225.26  E(vib)   ...       0.00
freq.    3236.41  E(vib)   ...       0.00
freq.    3467.16  E(vib)   ...       0.00

------------
INNER ENERGY

Rotational constants in cm-1:     0.013820     0.008759     0.007402

                             ****ORCA TERMINATED NORMALLY****
TOTAL RUN TIME: 0 days 8 hours 0 minutes 0 seconds 978 msec
