                         Program Version 5.0.4 -  RELEASE  -
|  1> ! wB97X-D3BJ TightOpt Freq def2-TZVP def2/J RIJCOSX TightSCF defgrid3 CHELPG
|  2> %maxcore 3400
|  3>
|  4> %pal nprocs 8
|  5> end
|  6>
|  7> %chelpg
|  8> grid 0.1
|  9> rmax 3.0
| 10> end
| 11>
| 12> *xyz 1 1
| 13> N          -2.19328000       0.19935300      -0.49271600
| 14> N           0.08693600       0.83027900       0.77604700
| 15> C          -0.80262800       2.05621100       0.67380700
| 16> C          -1.07138300       2.36363400      -0.79585600
| 17> C          -2.10976300       1.74840100       1.40122000
| 18> C          -1.79899100       1.18859900      -1.49208100
| 19> C          -3.00913500       0.84155400       0.53641300
| 20> C          -2.74782500      -1.02961300      -1.04671300
| 21> C          -2.79284400      -2.15494600       0.00080600
| 22> C           1.41874100       0.96249600       0.18538600
| 23> C          -1.53629600      -2.18584300       0.83873000
| 24> C           2.36940800       1.71815100       0.84445000
| 25> C           1.68429000       0.33329300      -1.01947500
| 26> C          -0.30350300      -2.49922700       0.26303900
| 27> C          -1.56652200      -1.84120100       2.18801600
| 28> C           3.62638600       1.84421500       0.26415400
| 29> C           2.93968200       0.45952300      -1.60517500
| 30> C           3.90321500       1.22441500      -0.94467400
| 31> C           0.86766300      -2.44417500       1.00706000
| 32> C          -0.39660400      -1.78869200       2.94158000
| 33> C           0.82736800      -2.07954100       2.34980000
| 34> H          -0.26169900       2.87364400       1.15090800
| 35> H          -0.14364700       2.60777400      -1.31493400
| 36> H          -1.68764200       3.26464400      -0.81481200
| 37> H          -2.61017000       2.69329400       1.61904900
| 38> H          -1.89625600       1.27725500       2.36520600
| 39> H          -2.66731800       1.55883900      -2.05577300
| 40> H          -1.13472500       0.70277300      -2.21016900
| 41> H          -3.47629200       0.08103900       1.15813700
| 42> H          -3.82045600       1.42251900       0.07417000
| 43> H          -3.74861300      -0.87457900      -1.47531500
| 44> H          -2.09197300      -1.32943700      -1.86884500
| 45> H          -2.92701400      -3.10374500      -0.52495000
| 46> H          -3.66232700      -2.04044600       0.65133400
| 47> H          -0.26100700      -2.79589100      -0.78107800
| 48> H          -2.51817100      -1.62367400       2.66312700
| 49> H           4.39164100       2.42734800       0.76261400
| 50> H           4.88896200       1.32951900      -1.38548300
| 51> H           1.81505900      -2.69291200       0.54208700
| 52> H          -0.44538200      -1.53878400       3.99626700
| 53> H           1.73964400      -2.04994300       2.93488400
| 54> H           0.16691000       0.53260800       1.75045100
| 55> H          -0.49263100       0.09654400       0.30635600
| 56> H           0.92017800      -0.27129300      -1.49605700
| 57> H           3.16115132      -0.01695858      -2.53727834
| 58> C           2.05300760       2.39662143       2.19024666
| 59> H           2.96541751       2.69810572       2.66090087
| 60> H           1.43829030       3.25584930       2.02068812
| 61> H           1.53547843       1.70731382       2.82421714
| 62> *
| 63>
| 64>
| 65>                          ****END OF INPUT****
 Total Charge           Charge          ....    1
 Multiplicity           Mult            ....    1
 Number of Electrons    NEL             ....  160
Dispersion correction           -0.121900255
FINAL SINGLE POINT ENERGY      -888.465626019062
Dispersion correction            ... done
Dispersion correction           -0.121831595
FINAL SINGLE POINT ENERGY      -888.468430959628
Dispersion correction            ... done
Dispersion correction           -0.122240804
FINAL SINGLE POINT ENERGY      -888.468936423201
Dispersion correction            ... done
FINAL SINGLE POINT ENERGY      -888.468767462566
FINAL SINGLE POINT ENERGY      -888.469217971510
FINAL SINGLE POINT ENERGY      -888.469306465769
FINAL SINGLE POINT ENERGY      -888.469386344730
FINAL SINGLE POINT ENERGY      -888.469434337629
FINAL SINGLE POINT ENERGY      -888.469489108106
FINAL SINGLE POINT ENERGY      -888.469548532759
FINAL SINGLE POINT ENERGY      -888.469572091785
FINAL SINGLE POINT ENERGY      -888.469585328732
Dispersion correction           -0.121926270
FINAL SINGLE POINT ENERGY      -888.469589678676
Dispersion correction            ... done
Dispersion correction           -0.121927958
FINAL SINGLE POINT ENERGY      -888.469590150340
Dispersion correction            ... done
                    ***********************HURRAY********************

CARTESIAN COORDINATES (ANGSTROEM)
---------------------------------
  N     -2.254790    0.172400   -0.519755
  N      0.037335    0.900272    0.672816
  C     -0.859986    2.112726    0.493587
  C     -1.161902    2.321235   -0.987068
  C     -2.151024    1.851099    1.265633
  C     -1.925222    1.114472   -1.584808
  C     -3.046358    0.848335    0.506244
  C     -2.800041   -1.098200   -0.981904
  C     -2.767844   -2.165198    0.125212
  C      1.398765    1.010678    0.153440
  C     -1.476081   -2.121262    0.907584
  C      2.387726    1.539219    0.978153
  C      1.656200    0.568967   -1.133320
  C     -0.257496   -2.408850    0.288646
  C     -1.462477   -1.735354    2.245914
  C      3.670718    1.632711    0.443414
  C      2.941198    0.675726   -1.643050
  C      3.947147    1.213965   -0.850989
  C      0.940634   -2.292908    0.980702
  C     -0.264495   -1.621734    2.947706
  C      0.942799   -1.891275    2.313516
  H     -0.317333    2.965577    0.900308
  H     -0.245199    2.519662   -1.543475
  H     -1.765884    3.228394   -1.051856
  H     -2.665920    2.803894    1.398735
  H     -1.916264    1.480824    2.268176
  H     -2.826999    1.456241   -2.113010
  H     -1.305389    0.595543   -2.319450
  H     -3.445790    0.110763    1.198941
  H     -3.905819    1.361089    0.050345
  H     -3.823111   -0.991732   -1.370795
  H     -2.174230   -1.426115   -1.816290
  H     -2.898761   -3.144304   -0.342717
  H     -3.611020   -2.037656    0.807196
  H     -0.246741   -2.732543   -0.748045
  H     -2.400610   -1.534683    2.754196
  H      4.466654    2.037328    1.058887
  H      4.955260    1.299612   -1.239273
  H      1.876152   -2.521534    0.482656
  H     -0.278697   -1.341898    3.996002
  H      1.877329   -1.816232    2.858342
  H      0.071134    0.642801    1.661086
  H     -0.518125    0.141272    0.216723
  H      0.862606    0.129869   -1.727231
  H      3.155472    0.334691   -2.648693
  C      2.102578    1.956307    2.398466
  H      3.011283    2.318014    2.877630
  H      1.362293    2.758671    2.455805
  H      1.735654    1.114035    2.995433

 Multiplicity           Mult            ....    1
 Number of Electrons    NEL             ....  160
 Basis Dimension        Dim             ....  844

ORBITAL ENERGIES
----------------

  NO   OCC          E(Eh)            E(eV)
   0   2.0000     -14.645540      -398.5254
   1   2.0000     -14.541951      -395.7066
   2   2.0000     -10.469569      -284.8915
   3   2.0000     -10.452008      -284.4136
   4   2.0000     -10.427675      -283.7515
   5   2.0000     -10.425480      -283.6917
   6   2.0000     -10.420525      -283.5569
   7   2.0000     -10.419131      -283.5190
   8   2.0000     -10.412177      -283.3297
   9   2.0000     -10.410721      -283.2901
  10   2.0000     -10.409174      -283.2480
  11   2.0000     -10.402966      -283.0791
  12   2.0000     -10.398965      -282.9702
  13   2.0000     -10.398703      -282.9631
  14   2.0000     -10.397935      -282.9422
  15   2.0000     -10.396782      -282.9108
  16   2.0000     -10.394463      -282.8477
  17   2.0000     -10.392588      -282.7967
  18   2.0000     -10.391261      -282.7606
  19   2.0000     -10.390783      -282.7476
  20   2.0000     -10.390632      -282.7435
  21   2.0000     -10.389559      -282.7143
  22   2.0000      -1.276713       -34.7411
  23   2.0000      -1.204515       -32.7765
  24   2.0000      -1.129861       -30.7451
  25   2.0000      -1.120136       -30.4804
  26   2.0000      -1.077931       -29.3320
  27   2.0000      -1.043244       -28.3881
  28   2.0000      -1.039103       -28.2754
  29   2.0000      -1.026967       -27.9452
  30   2.0000      -1.005821       -27.3698
  31   2.0000      -0.999298       -27.1923
  32   2.0000      -0.977354       -26.5951
  33   2.0000      -0.950975       -25.8773
  34   2.0000      -0.918762       -25.0008
  35   2.0000      -0.902912       -24.5695
  36   2.0000      -0.883109       -24.0306
  37   2.0000      -0.869592       -23.6628
  38   2.0000      -0.851655       -23.1747
  39   2.0000      -0.849362       -23.1123
  40   2.0000      -0.827179       -22.5087
  41   2.0000      -0.818274       -22.2664
  42   2.0000      -0.803156       -21.8550
  43   2.0000      -0.783010       -21.3068
  44   2.0000      -0.764549       -20.8044
  45   2.0000      -0.746587       -20.3157
  46   2.0000      -0.737453       -20.0671
  47   2.0000      -0.725148       -19.7323
  48   2.0000      -0.717616       -19.5273
  49   2.0000      -0.700239       -19.0545
  50   2.0000      -0.696908       -18.9638
  51   2.0000      -0.691237       -18.8095
  52   2.0000      -0.685990       -18.6667
  53   2.0000      -0.671961       -18.2850
  54   2.0000      -0.670558       -18.2468
  55   2.0000      -0.667762       -18.1707
  56   2.0000      -0.661775       -18.0078
  57   2.0000      -0.652242       -17.7484
  58   2.0000      -0.648915       -17.6579
  59   2.0000      -0.643387       -17.5075
  60   2.0000      -0.638985       -17.3877
  61   2.0000      -0.627104       -17.0644
  62   2.0000      -0.625241       -17.0137
  63   2.0000      -0.620381       -16.8814
  64   2.0000      -0.606903       -16.5147
  65   2.0000      -0.603285       -16.4162
  66   2.0000      -0.602357       -16.3910
  67   2.0000      -0.587027       -15.9738
  68   2.0000      -0.579630       -15.7725
  69   2.0000      -0.578150       -15.7323
  70   2.0000      -0.576553       -15.6888
  71   2.0000      -0.566065       -15.4034
  72   2.0000      -0.561125       -15.2690
  73   2.0000      -0.555634       -15.1196
  74   2.0000      -0.549584       -14.9549
  75   2.0000      -0.484071       -13.1722
  76   2.0000      -0.470223       -12.7954
  77   2.0000      -0.467769       -12.7286
  78   2.0000      -0.461557       -12.5596
  79   2.0000      -0.454202       -12.3595
  80   0.0000      -0.069200        -1.8830
  81   0.0000      -0.061049        -1.6612
  82   0.0000      -0.055663        -1.5147
  83   0.0000      -0.048543        -1.3209
  84   0.0000      -0.023596        -0.6421

MULLIKEN ATOMIC CHARGES
-----------------------
   0 N :   -0.225499
   1 N :    0.004828
   2 C :    0.048110
   3 C :   -0.254519
   4 C :   -0.265335
   5 C :   -0.228915
   6 C :   -0.147929
   7 C :   -0.179539
   8 C :   -0.303694
   9 C :    0.260542
  10 C :    0.191922
  11 C :   -0.110781
  12 C :   -0.295156
  13 C :   -0.174847
  14 C :   -0.233913
  15 C :   -0.091764
  16 C :   -0.074775
  17 C :   -0.142630
  18 C :   -0.097119
  19 C :   -0.161834
  20 C :   -0.170040
  21 H :    0.157088
  22 H :    0.167085
  23 H :    0.146887
  24 H :    0.158058
  25 H :    0.137304
  26 H :    0.138623
  27 H :    0.143943
  28 H :    0.132517
  29 H :    0.135453
  30 H :    0.130623
  31 H :    0.132196
  32 H :    0.157152
  33 H :    0.156962
  34 H :    0.134145
  35 H :    0.143881
  36 H :    0.143345
  37 H :    0.152768
  38 H :    0.141436
  39 H :    0.146030
  40 H :    0.146028
  41 H :    0.244613
  42 H :    0.214358
  43 H :    0.129281
  44 H :    0.150470
  45 C :   -0.428394
  46 H :    0.157503
  47 H :    0.142258
  48 H :    0.141274
Sum of atomic charges:    1.0000000

LOEWDIN ATOMIC CHARGES
----------------------
   0 N :    0.082390
   1 N :    0.282663
   2 C :   -0.226354
   3 C :   -0.213135
   4 C :   -0.218770
   5 C :   -0.265867
   6 C :   -0.249892
   7 C :   -0.265582
   8 C :   -0.204792
   9 C :   -0.162581
  10 C :   -0.151158
  11 C :   -0.140426
  12 C :   -0.110676
  13 C :   -0.115637
  14 C :   -0.123934
  15 C :   -0.086194
  16 C :   -0.114903
  17 C :   -0.102432
  18 C :   -0.126974
  19 C :   -0.151963
  20 C :   -0.148102
  21 H :    0.156804
  22 H :    0.148319
  23 H :    0.155380
  24 H :    0.153347
  25 H :    0.140662
  26 H :    0.132861
  27 H :    0.131440
  28 H :    0.137831
  29 H :    0.133854
  30 H :    0.133726
  31 H :    0.136641
  32 H :    0.155283
  33 H :    0.143957
  34 H :    0.151612
  35 H :    0.149664
  36 H :    0.155976
  37 H :    0.155467
  38 H :    0.151543
  39 H :    0.150139
  40 H :    0.149409
  41 H :    0.212825
  42 H :    0.215762
  43 H :    0.151016
  44 H :    0.153928
  45 C :   -0.239647
  46 H :    0.140346
  47 H :    0.127214
  48 H :    0.128958

  Mayer bond orders larger than 0.100000
B(  0-N ,  5-C ) :   0.9051 B(  0-N ,  6-C ) :   0.8810 B(  0-N ,  7-C ) :   0.9481
B(  0-N , 42-H ) :   0.1304 B(  1-N ,  2-C ) :   0.8492 B(  1-N ,  9-C ) :   0.8695
B(  1-N , 41-H ) :   0.8836 B(  1-N , 42-H ) :   0.8414 B(  2-C ,  3-C ) :   0.9866
B(  2-C ,  4-C ) :   0.9565 B(  2-C , 21-H ) :   0.9530 B(  3-C ,  5-C ) :   0.9832
B(  3-C , 22-H ) :   0.9660 B(  3-C , 23-H ) :   0.9617 B(  4-C ,  6-C ) :   0.9902
B(  4-C , 24-H ) :   0.9694 B(  4-C , 25-H ) :   0.9663 B(  5-C , 26-H ) :   0.9690
B(  5-C , 27-H ) :   0.9941 B(  6-C , 28-H ) :   0.9873 B(  6-C , 29-H ) :   0.9594
B(  7-C ,  8-C ) :   0.9580 B(  7-C , 30-H ) :   0.9701 B(  7-C , 31-H ) :   0.9823
B(  8-C , 10-C ) :   0.8577 B(  8-C , 32-H ) :   0.9790 B(  8-C , 33-H ) :   1.0034
B(  9-C , 11-C ) :   1.3735 B(  9-C , 12-C ) :   1.3620 B( 10-C , 13-C ) :   1.3054
B( 10-C , 14-C ) :   1.3422 B( 11-C , 12-C ) :   0.1122 B( 11-C , 15-C ) :   1.4436
B( 11-C , 45-C ) :   0.9352 B( 12-C , 16-C ) :   1.4216 B( 12-C , 43-H ) :   0.9912
B( 13-C , 18-C ) :   1.4564 B( 13-C , 34-H ) :   0.9920 B( 14-C , 19-C ) :   1.4162
B( 14-C , 35-H ) :   0.9769 B( 15-C , 17-C ) :   1.4205 B( 15-C , 36-H ) :   0.9618
B( 16-C , 17-C ) :   1.4062 B( 16-C , 44-H ) :   0.9664 B( 17-C , 37-H ) :   0.9675
B( 18-C , 20-C ) :   1.3482 B( 18-C , 38-H ) :   0.9799 B( 19-C , 20-C ) :   1.3722
B( 19-C , 39-H ) :   0.9968 B( 20-C , 40-H ) :   0.9909 B( 45-C , 46-H ) :   0.9779
B( 45-C , 47-H ) :   0.9789 B( 45-C , 48-H ) :   0.9753

Dispersion correction           -0.121927627
FINAL SINGLE POINT ENERGY      -888.469590230997

DIPOLE MOMENT
-------------
                                X             Y             Z
Electronic contribution:      8.29398      -4.35922      -0.14832
Nuclear contribution   :     -8.56287       5.46644       0.10153
                        -----------------------------------------
Total Dipole Moment    :     -0.26888       1.10722      -0.04678
                        -----------------------------------------
Magnitude (a.u.)       :      1.14036
Magnitude (Debye)      :      2.89856

Dispersion correction in the Hessian             ... done   (      2.2 sec)

VIBRATIONAL FREQUENCIES
-----------------------

Scaling factor for frequencies =  1.000000000  (already applied!)

   0:         0.00 cm**-1
   1:         0.00 cm**-1
   2:         0.00 cm**-1
   3:         0.00 cm**-1
   4:         0.00 cm**-1
   5:         0.00 cm**-1
   6:        33.69 cm**-1
   7:        43.08 cm**-1
   8:        49.34 cm**-1
   9:        84.23 cm**-1
  10:        87.63 cm**-1
  11:       103.55 cm**-1
  12:       118.44 cm**-1
  13:       120.10 cm**-1
  14:       135.10 cm**-1
  15:       172.05 cm**-1
  16:       181.61 cm**-1
  17:       204.47 cm**-1
  18:       232.71 cm**-1
  19:       275.74 cm**-1
  20:       286.98 cm**-1
  21:       307.25 cm**-1
  22:       337.87 cm**-1
  23:       360.56 cm**-1
  24:       371.59 cm**-1
  25:       387.11 cm**-1
  26:       423.51 cm**-1
  27:       437.60 cm**-1
  28:       453.26 cm**-1
  29:       469.21 cm**-1
  30:       497.87 cm**-1
  31:       510.13 cm**-1
  32:       522.30 cm**-1
  33:       536.89 cm**-1
  34:       567.31 cm**-1
  35:       618.23 cm**-1
  36:       631.22 cm**-1
  37:       637.90 cm**-1
  38:       720.40 cm**-1
  39:       734.06 cm**-1
  40:       740.48 cm**-1
  41:       775.71 cm**-1
  42:       784.23 cm**-1
  43:       790.38 cm**-1
  44:       793.17 cm**-1
  45:       802.94 cm**-1
  46:       830.34 cm**-1
  47:       849.58 cm**-1
  48:       862.40 cm**-1
  49:       883.80 cm**-1
  50:       894.16 cm**-1
  51:       905.59 cm**-1
  52:       923.38 cm**-1
  53:       940.14 cm**-1
  54:       953.20 cm**-1
  55:       975.64 cm**-1
  56:       987.58 cm**-1
  57:       992.58 cm**-1
  58:      1016.20 cm**-1
  59:      1019.70 cm**-1
  60:      1025.18 cm**-1
  61:      1026.19 cm**-1
  62:      1031.19 cm**-1
  63:      1036.32 cm**-1
  64:      1043.95 cm**-1
  65:      1046.50 cm**-1
  66:      1068.33 cm**-1
  67:      1071.17 cm**-1
  68:      1073.34 cm**-1
  69:      1088.73 cm**-1
  70:      1114.69 cm**-1
  71:      1128.57 cm**-1
  72:      1132.34 cm**-1
  73:      1156.67 cm**-1
  74:      1168.95 cm**-1
  75:      1183.70 cm**-1
  76:      1190.00 cm**-1
  77:      1205.63 cm**-1
  78:      1213.78 cm**-1
  79:      1217.06 cm**-1
  80:      1218.49 cm**-1
  81:      1220.42 cm**-1
  82:      1243.42 cm**-1
  83:      1264.88 cm**-1
  84:      1271.34 cm**-1
  85:      1280.93 cm**-1
  86:      1288.83 cm**-1
  87:      1303.51 cm**-1
  88:      1318.32 cm**-1
  89:      1323.07 cm**-1
  90:      1326.97 cm**-1
  91:      1341.27 cm**-1
  92:      1356.82 cm**-1
  93:      1366.23 cm**-1
  94:      1377.24 cm**-1
  95:      1384.06 cm**-1
  96:      1395.11 cm**-1
  97:      1401.55 cm**-1
  98:      1413.34 cm**-1
  99:      1423.41 cm**-1
 100:      1432.40 cm**-1
 101:      1438.19 cm**-1
 102:      1447.14 cm**-1
 103:      1489.20 cm**-1
 104:      1497.61 cm**-1
 105:      1503.01 cm**-1
 106:      1503.72 cm**-1
 107:      1507.27 cm**-1
 108:      1508.63 cm**-1
 109:      1517.26 cm**-1
 110:      1520.90 cm**-1
 111:      1526.79 cm**-1
 112:      1540.25 cm**-1
 113:      1553.48 cm**-1
 114:      1560.88 cm**-1
 115:      1665.85 cm**-1
 116:      1670.40 cm**-1
 117:      1679.09 cm**-1
 118:      1689.32 cm**-1
 119:      1709.65 cm**-1
 120:      3014.52 cm**-1
 121:      3017.16 cm**-1
 122:      3021.87 cm**-1
 123:      3056.69 cm**-1
 124:      3072.32 cm**-1
 125:      3079.91 cm**-1
 126:      3091.14 cm**-1
 127:      3100.34 cm**-1
 128:      3105.88 cm**-1
 129:      3108.99 cm**-1
 130:      3118.15 cm**-1
 131:      3133.45 cm**-1
 132:      3136.37 cm**-1
 133:      3148.53 cm**-1
 134:      3150.32 cm**-1
 135:      3167.27 cm**-1
 136:      3168.75 cm**-1
 137:      3188.21 cm**-1
 138:      3189.86 cm**-1
 139:      3203.68 cm**-1
 140:      3208.27 cm**-1
 141:      3213.31 cm**-1
 142:      3213.91 cm**-1
 143:      3224.13 cm**-1
 144:      3225.29 cm**-1
 145:      3236.24 cm**-1
 146:      3466.91 cm**-1

IR SPECTRUM
-----------

 Mode   freq       eps      Int      T**2         TX        TY        TZ
       cm**-1   L/(mol*cm) km/mol    a.u.
----------------------------------------------------------------------------
  6:     33.69   0.000018    0.09  0.000168  (-0.006114  0.004920 -0.010305)
  7:     43.08   0.000134    0.68  0.000974  ( 0.027764 -0.008650 -0.011326)
  8:     49.34   0.000160    0.81  0.001011  (-0.022617 -0.019424 -0.011074)
  9:     84.23   0.000091    0.46  0.000338  ( 0.011566 -0.014171  0.001794)
 10:     87.63   0.000291    1.47  0.001036  ( 0.004167 -0.031890 -0.001208)
 11:    103.55   0.000128    0.65  0.000386  ( 0.007285 -0.007199  0.016755)
 12:    118.44   0.000495    2.50  0.001305  ( 0.008548  0.035086 -0.000828)
 13:    120.10   0.000025    0.13  0.000065  (-0.007175 -0.003183 -0.001957)
 14:    135.10   0.000051    0.26  0.000119  (-0.001663  0.009856 -0.004341)
 15:    172.05   0.001204    6.08  0.002183  (-0.041333  0.007645 -0.020403)
 16:    181.61   0.000339    1.71  0.000583  ( 0.009216 -0.020495  0.008830)
 17:    204.47   0.000027    0.14  0.000041  ( 0.003384 -0.004856  0.002445)
 18:    232.71   0.000097    0.49  0.000130  (-0.008613 -0.006230  0.004104)
 19:    275.74   0.000892    4.51  0.001009  ( 0.021921 -0.020151  0.011085)
 20:    286.98   0.000039    0.20  0.000043  (-0.004287  0.003463 -0.003532)
 21:    307.25   0.000198    1.00  0.000201  (-0.010829 -0.004368 -0.008016)
 22:    337.87   0.001419    7.17  0.001311  (-0.002043  0.035742 -0.005374)
 23:    360.56   0.000220    1.11  0.000191  ( 0.008195  0.003759  0.010464)
 24:    371.59   0.004439   22.43  0.003728  ( 0.055198 -0.002584  0.025971)
 25:    387.11   0.000264    1.34  0.000213  ( 0.012113  0.008051  0.001221)
 26:    423.51   0.000005    0.02  0.000004  (-0.000509 -0.001770  0.000463)
 27:    437.60   0.000204    1.03  0.000146  (-0.005604  0.009832  0.004198)
 28:    453.26   0.001782    9.01  0.001227  (-0.024720 -0.021809 -0.011841)
 29:    469.21   0.002212   11.18  0.001471  ( 0.024397 -0.022920  0.018722)
 30:    497.87   0.000185    0.93  0.000116  (-0.009696 -0.000930 -0.004575)
 31:    510.13   0.001337    6.76  0.000818  (-0.000277 -0.027094  0.009144)
 32:    522.30   0.003840   19.40  0.002294  ( 0.044658  0.011971  0.012512)
 33:    536.89   0.000581    2.94  0.000338  (-0.015091  0.005138 -0.009156)
 34:    567.31   0.000362    1.83  0.000199  ( 0.003664  0.013402  0.002471)
 35:    618.23   0.002661   13.45  0.001343  ( 0.005337  0.035498 -0.007397)
 36:    631.22   0.000206    1.04  0.000102  (-0.007987 -0.006147  0.000418)
 37:    637.90   0.000003    0.01  0.000001  (-0.000179  0.000529 -0.001003)
 38:    720.40   0.000667    3.37  0.000289  (-0.005703 -0.015401 -0.004378)
 39:    734.06   0.006687   33.79  0.002843  ( 0.004602  0.050518 -0.016418)
 40:    740.48   0.001255    6.34  0.000529  ( 0.014829 -0.012717  0.012128)
 41:    775.71   0.004157   21.01  0.001673  (-0.002469  0.039129 -0.011635)
 42:    784.23   0.014949   75.55  0.005948  (-0.014285 -0.072458  0.022231)
 43:    790.38   0.000463    2.34  0.000183  ( 0.010190  0.008881  0.000163)
 44:    793.17   0.000668    3.38  0.000263  (-0.005428  0.013658 -0.006850)
 45:    802.94   0.004459   22.53  0.001733  ( 0.028677 -0.024444  0.017694)
 46:    830.34   0.001161    5.87  0.000437  (-0.019210 -0.000534 -0.008198)
 47:    849.58   0.000849    4.29  0.000312  (-0.013805 -0.001951 -0.010834)
 48:    862.40   0.000137    0.69  0.000050  ( 0.005358 -0.002920  0.003538)
 49:    883.80   0.003595   18.17  0.001270  (-0.030281 -0.000420 -0.018772)
 50:    894.16   0.000571    2.89  0.000199  ( 0.007713 -0.000640  0.011809)
 51:    905.59   0.000152    0.77  0.000052  ( 0.000899 -0.006012 -0.003937)
 52:    923.38   0.000265    1.34  0.000090  ( 0.006041 -0.001267  0.007179)
 53:    940.14   0.002016   10.19  0.000669  (-0.022018  0.008522 -0.010578)
 54:    953.20   0.002171   10.97  0.000711  ( 0.021892  0.002420  0.015018)
 55:    975.64   0.000591    2.99  0.000189  ( 0.013130  0.001351  0.003842)
 56:    987.58   0.000480    2.43  0.000152  (-0.003277  0.011867  0.000400)
 57:    992.58   0.000039    0.20  0.000012  (-0.001676  0.000190  0.003079)
 58:   1016.20   0.000393    1.99  0.000121  (-0.006263 -0.001334  0.008929)
 59:   1019.70   0.002786   14.08  0.000853  ( 0.021764 -0.019355  0.002107)
 60:   1025.18   0.000213    1.08  0.000065  (-0.000708  0.007798  0.001878)
 61:   1026.19   0.001687    8.53  0.000513  (-0.001549  0.022408 -0.002937)
 62:   1031.19   0.000087    0.44  0.000026  (-0.001415  0.001205  0.004785)
 63:   1036.32   0.000006    0.03  0.000002  (-0.000621  0.000957  0.000676)
 64:   1043.95   0.000004    0.02  0.000001  ( 0.000474 -0.000903  0.000209)
 65:   1046.50   0.001397    7.06  0.000417  (-0.016220 -0.002179  0.012199)
 66:   1068.33   0.000265    1.34  0.000077  (-0.007542 -0.003739 -0.002555)
 67:   1071.17   0.003983   20.13  0.001161  ( 0.029752 -0.007601  0.014750)
 68:   1073.34   0.000318    1.61  0.000093  (-0.000974  0.008469 -0.004462)
 69:   1088.73   0.000768    3.88  0.000220  (-0.008489  0.007280  0.009753)
 70:   1114.69   0.000377    1.91  0.000106  (-0.000068  0.008774 -0.005345)
 71:   1128.57   0.003352   16.94  0.000927  (-0.022929 -0.007520 -0.018561)
 72:   1132.34   0.007526   38.03  0.002074  (-0.045267 -0.004187 -0.002735)
 73:   1156.67   0.001095    5.53  0.000295  (-0.015873  0.003659  0.005474)
 74:   1168.95   0.001625    8.21  0.000434  (-0.004990 -0.005389  0.019493)
 75:   1183.70   0.000142    0.72  0.000037  (-0.000854  0.000168 -0.006049)
 76:   1190.00   0.000440    2.22  0.000115  ( 0.007183  0.004661  0.006490)
 77:   1205.63   0.006617   33.44  0.001713  (-0.013835 -0.037245 -0.011581)
 78:   1213.78   0.000301    1.52  0.000077  ( 0.008015 -0.003560  0.000759)
 79:   1217.06   0.001911    9.66  0.000490  ( 0.013452 -0.017069  0.004206)
 80:   1218.49   0.000941    4.76  0.000241  (-0.008731 -0.008519 -0.009606)
 81:   1220.42   0.001184    5.99  0.000303  (-0.010670 -0.013528  0.002450)
 82:   1243.42   0.000219    1.11  0.000055  ( 0.001507  0.005782  0.004384)
 83:   1264.88   0.001817    9.18  0.000448  ( 0.010468 -0.011919 -0.014022)
 84:   1271.34   0.000664    3.35  0.000163  ( 0.006505 -0.007521  0.007999)
 85:   1280.93   0.000850    4.29  0.000207  (-0.012577  0.003727 -0.005914)
 86:   1288.83   0.003060   15.46  0.000741  ( 0.021947 -0.015311  0.004982)
 87:   1303.51   0.000308    1.56  0.000074  (-0.004610 -0.002092  0.006939)
 88:   1318.32   0.000518    2.62  0.000123  (-0.005053 -0.003654 -0.009152)
 89:   1323.07   0.001998   10.10  0.000471  ( 0.021592 -0.001762  0.001351)
 90:   1326.97   0.002847   14.39  0.000670  ( 0.017282 -0.004203  0.018793)
 91:   1341.27   0.000376    1.90  0.000087  ( 0.005544 -0.006364 -0.004020)
 92:   1356.82   0.001859    9.39  0.000427  ( 0.014853 -0.014059  0.003031)
 93:   1366.23   0.000307    1.55  0.000070  (-0.005297 -0.001140  0.006383)
 94:   1377.24   0.001390    7.02  0.000315  ( 0.005360 -0.008096  0.014853)
 95:   1384.06   0.001866    9.43  0.000421  ( 0.012634 -0.016041 -0.001929)
 96:   1395.11   0.000751    3.79  0.000168  ( 0.003416 -0.012380  0.001742)
 97:   1401.55   0.001337    6.76  0.000298  ( 0.007231  0.013094  0.008596)
 98:   1413.34   0.012345   62.39  0.002726  (-0.051341  0.007992 -0.005101)
 99:   1423.41   0.006874   34.74  0.001507  ( 0.027857 -0.020890  0.017163)
100:   1432.40   0.003175   16.05  0.000692  ( 0.019369 -0.009178  0.015242)
101:   1438.19   0.002980   15.06  0.000647  (-0.001290  0.024315  0.007335)
102:   1447.14   0.002210   11.17  0.000477  ( 0.017791 -0.011287  0.005710)
103:   1489.20   0.000578    2.92  0.000121  ( 0.006046  0.006725  0.006265)
104:   1497.61   0.003034   15.33  0.000632  ( 0.003065 -0.012727  0.021467)
105:   1503.01   0.001333    6.74  0.000277  (-0.001879 -0.015454 -0.005863)
106:   1503.72   0.000656    3.31  0.000136  ( 0.000529  0.010683 -0.004659)
107:   1507.27   0.001554    7.85  0.000322  (-0.003600 -0.017151 -0.003826)
108:   1508.63   0.001873    9.47  0.000387  (-0.007575 -0.008652  0.015976)
109:   1517.26   0.000452    2.28  0.000093  (-0.006527 -0.006899 -0.001646)
110:   1520.90   0.003953   19.98  0.000811  (-0.014892  0.004543  0.023848)
111:   1526.79   0.003100   15.67  0.000634  ( 0.022949  0.005947  0.008459)
112:   1540.25   0.006212   31.39  0.001259  (-0.031935  0.001076 -0.015413)
113:   1553.48   0.002778   14.04  0.000558  ( 0.020172  0.000793  0.012265)
114:   1560.88   0.004958   25.06  0.000991  ( 0.017902 -0.000030 -0.025898)
115:   1665.85   0.000234    1.18  0.000044  (-0.003791  0.000423  0.005407)
116:   1670.40   0.015604   78.86  0.002915  ( 0.016909  0.049679 -0.012697)
117:   1679.09   0.005246   26.51  0.000975  ( 0.008362  0.027852 -0.011368)
118:   1689.32   0.001692    8.55  0.000313  ( 0.011260 -0.007775  0.011194)
119:   1709.65   0.000673    3.40  0.000123  (-0.005227 -0.009768  0.000251)
120:   3014.52   0.016077   81.25  0.001664  (-0.037945  0.007097 -0.013195)
121:   3017.16   0.002484   12.55  0.000257  (-0.003558 -0.001057  0.015593)
122:   3021.87   0.023470  118.61  0.002424  (-0.040162 -0.012280 -0.025689)
123:   3056.69   0.002951   14.91  0.000301  ( 0.013329  0.002382 -0.010861)
124:   3072.32   0.065876  332.91  0.006691  ( 0.065712  0.048546  0.004049)
125:   3079.91   0.012816   64.76  0.001299  (-0.026127 -0.017813 -0.017279)
126:   3091.14   0.000941    4.76  0.000095  (-0.008636 -0.004467 -0.000713)
127:   3100.34   0.000767    3.88  0.000077  ( 0.007932 -0.000088 -0.003785)
128:   3105.88   0.002199   11.11  0.000221  (-0.006231 -0.012304  0.005542)
129:   3108.99   0.003394   17.15  0.000341  ( 0.014653 -0.007580 -0.008280)
130:   3118.15   0.001605    8.11  0.000161  ( 0.002413 -0.012432  0.000500)
131:   3133.45   0.001927    9.74  0.000192  (-0.008196  0.007364  0.008396)
132:   3136.37   0.001242    6.28  0.000124  (-0.007488  0.008143 -0.001098)
133:   3148.53   0.000978    4.94  0.000097  (-0.005436  0.007480  0.003386)
134:   3150.32   0.002176   11.00  0.000216  (-0.013839  0.001269  0.004738)
135:   3167.27   0.002037   10.29  0.000201  (-0.002215 -0.009480  0.010291)
136:   3168.75   0.000872    4.40  0.000086  (-0.008654 -0.001243 -0.003066)
137:   3188.21   0.000738    3.73  0.000072  ( 0.004359  0.001079  0.007219)
138:   3189.86   0.000562    2.84  0.000055  (-0.006868  0.001645  0.002265)
139:   3203.68   0.000413    2.09  0.000040  (-0.006240  0.000630  0.000949)
140:   3208.27   0.000300    1.52  0.000029  (-0.003671 -0.002312 -0.003221)
141:   3213.31   0.001107    5.59  0.000107  ( 0.004839 -0.002150 -0.008913)
142:   3213.91   0.000232    1.17  0.000023  ( 0.004252  0.002043 -0.000533)
143:   3224.13   0.000768    3.88  0.000074  ( 0.007655  0.003355  0.002110)
144:   3225.29   0.000575    2.90  0.000056  ( 0.007373  0.000762  0.000811)
145:   3236.24   0.000145    0.73  0.000014  ( 0.001495 -0.001188 -0.003211)
146:   3466.91   0.009155   46.27  0.000824  (-0.002472  0.018198 -0.022063)

--------------------------
THERMOCHEMISTRY AT 298.15K
--------------------------

Temperature         ... 298.15 K
Pressure            ... 1.00 atm
Total Mass          ... 295.45 AMU

Throughout the following assumptions are being made:
  (1) The electronic state is orbitally nondegenerate
  (2) There are no thermally accessible electronically excited states
  (3) Hindered rotations indicated by low frequency modes are not
      treated as such but are treated as vibrations and this may
      cause some error
  (4) All equations used are the standard statistical mechanics
      equations for an ideal gas
  (5) All vibrations are strictly harmonic

freq.      33.69  E(vib)   ...       0.55
freq.      43.08  E(vib)   ...       0.53
freq.      49.34  E(vib)   ...       0.52
freq.      84.23  E(vib)   ...       0.48
freq.      87.63  E(vib)   ...       0.48
freq.     103.55  E(vib)   ...       0.46
freq.     118.44  E(vib)   ...       0.44
freq.     120.10  E(vib)   ...       0.44
freq.     135.10  E(vib)   ...       0.42
freq.     172.05  E(vib)   ...       0.38
freq.     181.61  E(vib)   ...       0.37
freq.     204.47  E(vib)   ...       0.35
freq.     232.71  E(vib)   ...       0.32
freq.     275.74  E(vib)   ...       0.28
freq.     286.98  E(vib)   ...       0.27
freq.     307.25  E(vib)   ...       0.26
freq.     337.87  E(vib)   ...       0.24
freq.     360.56  E(vib)   ...       0.22
freq.     371.59  E(vib)   ...       0.21
freq.     387.11  E(vib)   ...       0.20
freq.     423.51  E(vib)   ...       0.18
freq.     437.60  E(vib)   ...       0.17
freq.     453.26  E(vib)   ...       0.16
freq.     469.21  E(vib)   ...       0.16
freq.     497.87  E(vib)   ...       0.14
freq.     510.13  E(vib)   ...       0.14
freq.     522.30  E(vib)   ...       0.13
freq.     536.89  E(vib)   ...       0.12
freq.     567.31  E(vib)   ...       0.11
freq.     618.23  E(vib)   ...       0.09
freq.     631.22  E(vib)   ...       0.09
freq.     637.90  E(vib)   ...       0.09
freq.     720.40  E(vib)   ...       0.07
freq.     734.06  E(vib)   ...       0.06
freq.     740.48  E(vib)   ...       0.06
freq.     775.71  E(vib)   ...       0.05
freq.     784.23  E(vib)   ...       0.05
freq.     790.38  E(vib)   ...       0.05
freq.     793.17  E(vib)   ...       0.05
freq.     802.94  E(vib)   ...       0.05
freq.     830.34  E(vib)   ...       0.04
freq.     849.58  E(vib)   ...       0.04
freq.     862.40  E(vib)   ...       0.04
freq.     883.80  E(vib)   ...       0.04
freq.     894.16  E(vib)   ...       0.03
freq.     905.59  E(vib)   ...       0.03
freq.     923.38  E(vib)   ...       0.03
freq.     940.14  E(vib)   ...       0.03
freq.     953.20  E(vib)   ...       0.03
freq.     975.64  E(vib)   ...       0.03
freq.     987.58  E(vib)   ...       0.02
freq.     992.58  E(vib)   ...       0.02
freq.    1016.20  E(vib)   ...       0.02
freq.    1019.70  E(vib)   ...       0.02
freq.    1025.18  E(vib)   ...       0.02
freq.    1026.19  E(vib)   ...       0.02
freq.    1031.19  E(vib)   ...       0.02
freq.    1036.32  E(vib)   ...       0.02
freq.    1043.95  E(vib)   ...       0.02
freq.    1046.50  E(vib)   ...       0.02
freq.    1068.33  E(vib)   ...       0.02
freq.    1071.17  E(vib)   ...       0.02
freq.    1073.34  E(vib)   ...       0.02
freq.    1088.73  E(vib)   ...       0.02
freq.    1114.69  E(vib)   ...       0.01
freq.    1128.57  E(vib)   ...       0.01
freq.    1132.34  E(vib)   ...       0.01
freq.    1156.67  E(vib)   ...       0.01
freq.    1168.95  E(vib)   ...       0.01
freq.    1183.70  E(vib)   ...       0.01
freq.    1190.00  E(vib)   ...       0.01
freq.    1205.63  E(vib)   ...       0.01
freq.    1213.78  E(vib)   ...       0.01
freq.    1217.06  E(vib)   ...       0.01
freq.    1218.49  E(vib)   ...       0.01
freq.    1220.42  E(vib)   ...       0.01
freq.    1243.42  E(vib)   ...       0.01
freq.    1264.88  E(vib)   ...       0.01
freq.    1271.34  E(vib)   ...       0.01
freq.    1280.93  E(vib)   ...       0.01
freq.    1288.83  E(vib)   ...       0.01
freq.    1303.51  E(vib)   ...       0.01
freq.    1318.32  E(vib)   ...       0.01
freq.    1323.07  E(vib)   ...       0.01
freq.    1326.97  E(vib)   ...       0.01
freq.    1341.27  E(vib)   ...       0.01
freq.    1356.82  E(vib)   ...       0.01
freq.    1366.23  E(vib)   ...       0.01
freq.    1377.24  E(vib)   ...       0.01
freq.    1384.06  E(vib)   ...       0.00
freq.    1395.11  E(vib)   ...       0.00
freq.    1401.55  E(vib)   ...       0.00
freq.    1413.34  E(vib)   ...       0.00
freq.    1423.41  E(vib)   ...       0.00
freq.    1432.40  E(vib)   ...       0.00
freq.    1438.19  E(vib)   ...       0.00
freq.    1447.14  E(vib)   ...       0.00
freq.    1489.20  E(vib)   ...       0.00
freq.    1497.61  E(vib)   ...       0.00
freq.    1503.01  E(vib)   ...       0.00
freq.    1503.72  E(vib)   ...       0.00
freq.    1507.27  E(vib)   ...       0.00
freq.    1508.63  E(vib)   ...       0.00
freq.    1517.26  E(vib)   ...       0.00
freq.    1520.90  E(vib)   ...       0.00
freq.    1526.79  E(vib)   ...       0.00
freq.    1540.25  E(vib)   ...       0.00
freq.    1553.48  E(vib)   ...       0.00
freq.    1560.88  E(vib)   ...       0.00
freq.    1665.85  E(vib)   ...       0.00
freq.    1670.40  E(vib)   ...       0.00
freq.    1679.09  E(vib)   ...       0.00
freq.    1689.32  E(vib)   ...       0.00
freq.    1709.65  E(vib)   ...       0.00
freq.    3014.52  E(vib)   ...       0.00
freq.    3017.16  E(vib)   ...       0.00
freq.    3021.87  E(vib)   ...       0.00
freq.    3056.69  E(vib)   ...       0.00
freq.    3072.32  E(vib)   ...       0.00
freq.    3079.91  E(vib)   ...       0.00
freq.    3091.14  E(vib)   ...       0.00
freq.    3100.34  E(vib)   ...       0.00
freq.    3105.88  E(vib)   ...       0.00
freq.    3108.99  E(vib)   ...       0.00
freq.    3118.15  E(vib)   ...       0.00
freq.    3133.45  E(vib)   ...       0.00
freq.    3136.37  E(vib)   ...       0.00
freq.    3148.53  E(vib)   ...       0.00
freq.    3150.32  E(vib)   ...       0.00
freq.    3167.27  E(vib)   ...       0.00
freq.    3168.75  E(vib)   ...       0.00
freq.    3188.21  E(vib)   ...       0.00
freq.    3189.86  E(vib)   ...       0.00
freq.    3203.68  E(vib)   ...       0.00
freq.    3208.27  E(vib)   ...       0.00
freq.    3213.31  E(vib)   ...       0.00
freq.    3213.91  E(vib)   ...       0.00
freq.    3224.13  E(vib)   ...       0.00
freq.    3225.29  E(vib)   ...       0.00
freq.    3236.24  E(vib)   ...       0.00
freq.    3466.91  E(vib)   ...       0.00

------------
INNER ENERGY

Rotational constants in cm-1:     0.013816     0.008769     0.007410

                             ****ORCA TERMINATED NORMALLY****
TOTAL RUN TIME: 0 days 7 hours 17 minutes 43 seconds 721 msec
