                         Program Version 5.0.4 -  RELEASE  -
|  1> ! wB97X-D3BJ TightOpt Freq def2-TZVP def2/J RIJCOSX TightSCF defgrid3 CHELPG
|  2> %maxcore 3400
|  3>
|  4> %pal nprocs 8
|  5> end
|  6>
|  7> %chelpg
|  8> grid 0.1
|  9> rmax 3.0
| 10> end
| 11>
| 12> *xyz 1 1
| 13> N          -2.33519600       0.44324500      -0.47685800
| 14> N           0.10330000       0.44848400       0.64861500
| 15> C          -0.69913500       1.63665800       1.14817600
| 16> C          -1.09068500       2.51466900      -0.03612500
| 17> C          -1.94551800       1.09950600       1.84862800
| 18> C          -1.96949500       1.73769200      -1.04545600
| 19> C          -2.99333300       0.64351600       0.81287500
| 20> C          -3.03265500      -0.44463900      -1.39878300
| 21> C          -3.05924100      -1.89251400      -0.88112900
| 22> C           1.37577100       0.76993700       0.00265900
| 23> C          -1.73166300      -2.29325000      -0.28206300
| 24> C           1.48032500       0.67195100      -1.37038700
| 25> C           2.43852500       1.17380700       0.79579900
| 26> C          -0.58944500      -2.38506500      -1.07971800
| 27> C          -1.60163500      -2.51813700       1.08642000
| 28> C           2.69507400       1.00041500      -1.96221100
| 29> C           3.65650400       1.49978700       0.20846200
| 30> C           3.76455300       1.40934200      -1.18152000
| 31> C           0.65056100      -2.66854600      -0.52268500
| 32> C          -0.36202500      -2.80733200       1.65132000
| 33> C           0.77141300      -2.87283200       0.84889400
| 34> H          -0.05384600       2.17900000       1.83950700
| 35> H          -0.20438100       2.92036800      -0.52555600
| 36> H          -1.63724500       3.36461800       0.37716500
| 37> H          -2.34865100       1.89067600       2.48286400
| 38> H          -1.67204800       0.27407600       2.51252100
| 39> H          -2.85939100       2.32759000      -1.30805500
| 40> H          -1.41829700       1.56075900      -1.97160100
| 41> H          -3.45323600      -0.28766400       1.13616200
| 42> H          -3.79955000       1.38574600       0.72006600
| 43> H          -4.05619000      -0.10132100      -1.60805400
| 44> H          -2.48507100      -0.41049700      -2.34477300
| 45> H          -3.31652000      -2.54802300      -1.71702300
| 46> H          -3.84867200      -2.02085200      -0.13772700
| 47> H           0.64220000       0.33168400      -1.96699900
| 48> H          -0.67348100      -2.23841100      -2.15275000
| 49> H          -2.48218800      -2.48134900       1.72040300
| 50> H           2.80459200       0.93068200      -3.03809400
| 51> H           4.70777600       1.65963200      -1.65559400
| 52> H           1.52540300      -2.73815600      -1.15938500
| 53> H          -0.28664700      -3.00034000       2.71634100
| 54> H           1.73677400      -3.10872800       1.28239100
| 55> H           0.25726600      -0.21782300       1.40818000
| 56> H          -0.57245200      -0.01848500       0.00051800
| 57> C           2.28025667       1.25482389       2.32550074
| 58> H           3.22502619       1.06897626       2.79216038
| 59> H           1.93402247       2.23015010       2.59708987
| 60> H           1.57175573       0.52163621       2.65009623
| 61> H           4.48826291       1.81141405       0.80509061
| 62> *
| 63>
| 64>
| 65>                          ****END OF INPUT****
 Total Charge           Charge          ....    1
 Multiplicity           Mult            ....    1
 Number of Electrons    NEL             ....  160
Dispersion correction           -0.121921374
FINAL SINGLE POINT ENERGY      -888.464904740172
Dispersion correction            ... done
Dispersion correction           -0.121918674
FINAL SINGLE POINT ENERGY      -888.468143768647
Dispersion correction            ... done
Dispersion correction           -0.121245383
FINAL SINGLE POINT ENERGY      -888.468753714576
Dispersion correction            ... done
FINAL SINGLE POINT ENERGY      -888.468612264427
FINAL SINGLE POINT ENERGY      -888.468881432199
FINAL SINGLE POINT ENERGY      -888.468954022704
FINAL SINGLE POINT ENERGY      -888.469097453907
FINAL SINGLE POINT ENERGY      -888.469136844004
FINAL SINGLE POINT ENERGY      -888.469240885696
FINAL SINGLE POINT ENERGY      -888.469382006340
FINAL SINGLE POINT ENERGY      -888.469516202368
FINAL SINGLE POINT ENERGY      -888.469550374442
FINAL SINGLE POINT ENERGY      -888.469577577547
FINAL SINGLE POINT ENERGY      -888.469584503536
Dispersion correction           -0.121902914
FINAL SINGLE POINT ENERGY      -888.469587422825
Dispersion correction            ... done
Dispersion correction           -0.121871821
FINAL SINGLE POINT ENERGY      -888.469587377126
Dispersion correction            ... done
                    ***********************HURRAY********************

CARTESIAN COORDINATES (ANGSTROEM)
---------------------------------
  N     -2.393785    0.436060   -0.506484
  N      0.048731    0.550311    0.603974
  C     -0.769579    1.758797    1.025689
  C     -1.191429    2.555544   -0.204818
  C     -1.998343    1.247616    1.773894
  C     -2.095693    1.716799   -1.139823
  C     -3.033462    0.665297    0.787538
  C     -3.074114   -0.521522   -1.369759
  C     -3.021819   -1.944862   -0.789891
  C      1.357025    0.822259    0.012583
  C     -1.663615   -2.262431   -0.209356
  C      1.455724    0.915534   -1.365307
  C      2.455885    0.961945    0.855578
  C     -0.533325   -2.316416   -1.028010
  C     -1.496556   -2.448703    1.160879
  C      2.687939    1.186007   -1.940624
  C      3.682609    1.230917    0.252634
  C      3.800670    1.348734   -1.125563
  C      0.729128   -2.528303   -0.490262
  C     -0.233612   -2.667105    1.706508
  C      0.885551   -2.697754    0.882543
  H     -0.129738    2.358756    1.671954
  H     -0.317887    2.931648   -0.738431
  H     -1.728423    3.430845    0.165875
  H     -2.425693    2.080813    2.334092
  H     -1.698784    0.496982    2.511569
  H     -3.015006    2.270229   -1.379865
  H     -1.588182    1.519494   -2.086729
  H     -3.421109   -0.276005    1.170967
  H     -3.890497    1.345370    0.675805
  H     -4.117416   -0.233510   -1.564324
  H     -2.553914   -0.505140   -2.331301
  H     -3.269807   -2.647013   -1.590023
  H     -3.786174   -2.075588   -0.021126
  H      0.579727    0.762710   -1.985466
  H     -0.643683   -2.195629   -2.101726
  H     -2.365400   -2.438799    1.811814
  H      2.778342    1.262693   -3.017394
  H      4.768517    1.558900   -1.565450
  H      1.594165   -2.567877   -1.142703
  H     -0.129173   -2.833226    2.773702
  H      1.869470   -2.879668    1.300423
  H      0.159755   -0.082383    1.398591
  H     -0.602757    0.054699   -0.046097
  C      2.342233    0.790953    2.349121
  H      3.316598    0.912429    2.820278
  H      1.667737    1.522440    2.801803
  H      1.979925   -0.209845    2.609183
  H      4.560712    1.343875    0.878894

 Multiplicity           Mult            ....    1
 Number of Electrons    NEL             ....  160
 Basis Dimension        Dim             ....  844

ORBITAL ENERGIES
----------------

  NO   OCC          E(Eh)            E(eV)
   0   2.0000     -14.645734      -398.5307
   1   2.0000     -14.541874      -395.7045
   2   2.0000     -10.469558      -284.8912
   3   2.0000     -10.452057      -284.4149
   4   2.0000     -10.427536      -283.7477
   5   2.0000     -10.425427      -283.6903
   6   2.0000     -10.420590      -283.5587
   7   2.0000     -10.419052      -283.5168
   8   2.0000     -10.412150      -283.3290
   9   2.0000     -10.410757      -283.2911
  10   2.0000     -10.409090      -283.2457
  11   2.0000     -10.402864      -283.0763
  12   2.0000     -10.399001      -282.9712
  13   2.0000     -10.398762      -282.9647
  14   2.0000     -10.397971      -282.9432
  15   2.0000     -10.396821      -282.9119
  16   2.0000     -10.394340      -282.8444
  17   2.0000     -10.392508      -282.7945
  18   2.0000     -10.391146      -282.7575
  19   2.0000     -10.390701      -282.7453
  20   2.0000     -10.390527      -282.7406
  21   2.0000     -10.389490      -282.7124
  22   2.0000      -1.276782       -34.7430
  23   2.0000      -1.204510       -32.7764
  24   2.0000      -1.129885       -30.7457
  25   2.0000      -1.120043       -30.4779
  26   2.0000      -1.077928       -29.3319
  27   2.0000      -1.043267       -28.3887
  28   2.0000      -1.039054       -28.2741
  29   2.0000      -1.026964       -27.9451
  30   2.0000      -1.005854       -27.3707
  31   2.0000      -0.999207       -27.1898
  32   2.0000      -0.977261       -26.5926
  33   2.0000      -0.951017       -25.8785
  34   2.0000      -0.918724       -24.9997
  35   2.0000      -0.902895       -24.5690
  36   2.0000      -0.883165       -24.0321
  37   2.0000      -0.869568       -23.6621
  38   2.0000      -0.851677       -23.1753
  39   2.0000      -0.849276       -23.1100
  40   2.0000      -0.827054       -22.5053
  41   2.0000      -0.818255       -22.2658
  42   2.0000      -0.803258       -21.8578
  43   2.0000      -0.783031       -21.3074
  44   2.0000      -0.764527       -20.8038
  45   2.0000      -0.746493       -20.3131
  46   2.0000      -0.737438       -20.0667
  47   2.0000      -0.725239       -19.7348
  48   2.0000      -0.717565       -19.5259
  49   2.0000      -0.700184       -19.0530
  50   2.0000      -0.696863       -18.9626
  51   2.0000      -0.691257       -18.8101
  52   2.0000      -0.686004       -18.6671
  53   2.0000      -0.671938       -18.2843
  54   2.0000      -0.670449       -18.2438
  55   2.0000      -0.667920       -18.1750
  56   2.0000      -0.661799       -18.0085
  57   2.0000      -0.652220       -17.7478
  58   2.0000      -0.648892       -17.6572
  59   2.0000      -0.643286       -17.5047
  60   2.0000      -0.638957       -17.3869
  61   2.0000      -0.627064       -17.0633
  62   2.0000      -0.625150       -17.0112
  63   2.0000      -0.620326       -16.8799
  64   2.0000      -0.606915       -16.5150
  65   2.0000      -0.603217       -16.4144
  66   2.0000      -0.602410       -16.3924
  67   2.0000      -0.587012       -15.9734
  68   2.0000      -0.579642       -15.7729
  69   2.0000      -0.578135       -15.7318
  70   2.0000      -0.576529       -15.6881
  71   2.0000      -0.565956       -15.4004
  72   2.0000      -0.561050       -15.2669
  73   2.0000      -0.555537       -15.1169
  74   2.0000      -0.549525       -14.9533
  75   2.0000      -0.484028       -13.1711
  76   2.0000      -0.470241       -12.7959
  77   2.0000      -0.467659       -12.7256
  78   2.0000      -0.461675       -12.5628
  79   2.0000      -0.454134       -12.3576
  80   0.0000      -0.069173        -1.8823
  81   0.0000      -0.060997        -1.6598
  82   0.0000      -0.055731        -1.5165
  83   0.0000      -0.048441        -1.3182
  84   0.0000      -0.023774        -0.6469

MULLIKEN ATOMIC CHARGES
-----------------------
   0 N :   -0.225684
   1 N :    0.004750
   2 C :    0.046627
   3 C :   -0.252908
   4 C :   -0.265243
   5 C :   -0.229560
   6 C :   -0.147650
   7 C :   -0.179424
   8 C :   -0.304135
   9 C :    0.258647
  10 C :    0.191857
  11 C :   -0.292952
  12 C :   -0.110978
  13 C :   -0.174563
  14 C :   -0.233023
  15 C :   -0.074492
  16 C :   -0.092158
  17 C :   -0.142575
  18 C :   -0.098635
  19 C :   -0.163077
  20 C :   -0.168423
  21 H :    0.156729
  22 H :    0.167023
  23 H :    0.146901
  24 H :    0.158077
  25 H :    0.137196
  26 H :    0.138469
  27 H :    0.144244
  28 H :    0.132481
  29 H :    0.135485
  30 H :    0.130603
  31 H :    0.132081
  32 H :    0.157213
  33 H :    0.157055
  34 H :    0.129505
  35 H :    0.134310
  36 H :    0.143995
  37 H :    0.150467
  38 H :    0.152798
  39 H :    0.141474
  40 H :    0.146037
  41 H :    0.145887
  42 H :    0.245630
  43 H :    0.213672
  44 C :   -0.428131
  45 H :    0.157532
  46 H :    0.141827
  47 H :    0.141623
  48 H :    0.143417
Sum of atomic charges:    1.0000000

LOEWDIN ATOMIC CHARGES
----------------------
   0 N :    0.082378
   1 N :    0.282727
   2 C :   -0.226359
   3 C :   -0.213079
   4 C :   -0.218782
   5 C :   -0.265906
   6 C :   -0.249890
   7 C :   -0.265664
   8 C :   -0.204809
   9 C :   -0.162704
  10 C :   -0.151166
  11 C :   -0.110589
  12 C :   -0.140369
  13 C :   -0.115742
  14 C :   -0.123926
  15 C :   -0.114898
  16 C :   -0.086158
  17 C :   -0.102399
  18 C :   -0.127098
  19 C :   -0.151793
  20 C :   -0.148118
  21 H :    0.156697
  22 H :    0.148426
  23 H :    0.155369
  24 H :    0.153355
  25 H :    0.140689
  26 H :    0.132846
  27 H :    0.131512
  28 H :    0.137813
  29 H :    0.133855
  30 H :    0.133711
  31 H :    0.136627
  32 H :    0.155278
  33 H :    0.143963
  34 H :    0.151016
  35 H :    0.151576
  36 H :    0.149648
  37 H :    0.153924
  38 H :    0.155475
  39 H :    0.151501
  40 H :    0.150131
  41 H :    0.149414
  42 H :    0.212774
  43 H :    0.215842
  44 C :   -0.239533
  45 H :    0.140337
  46 H :    0.127072
  47 H :    0.129032
  48 H :    0.155989

  Mayer bond orders larger than 0.100000
B(  0-N ,  5-C ) :   0.9054 B(  0-N ,  6-C ) :   0.8805 B(  0-N ,  7-C ) :   0.9480
B(  0-N , 43-H ) :   0.1298 B(  1-N ,  2-C ) :   0.8497 B(  1-N ,  9-C ) :   0.8688
B(  1-N , 42-H ) :   0.8834 B(  1-N , 43-H ) :   0.8423 B(  2-C ,  3-C ) :   0.9867
B(  2-C ,  4-C ) :   0.9572 B(  2-C , 21-H ) :   0.9535 B(  3-C ,  5-C ) :   0.9830
B(  3-C , 22-H ) :   0.9660 B(  3-C , 23-H ) :   0.9615 B(  4-C ,  6-C ) :   0.9901
B(  4-C , 24-H ) :   0.9694 B(  4-C , 25-H ) :   0.9663 B(  5-C , 26-H ) :   0.9690
B(  5-C , 27-H ) :   0.9942 B(  6-C , 28-H ) :   0.9874 B(  6-C , 29-H ) :   0.9594
B(  7-C ,  8-C ) :   0.9580 B(  7-C , 30-H ) :   0.9702 B(  7-C , 31-H ) :   0.9823
B(  8-C , 10-C ) :   0.8577 B(  8-C , 32-H ) :   0.9791 B(  8-C , 33-H ) :   1.0033
B(  9-C , 11-C ) :   1.3628 B(  9-C , 12-C ) :   1.3745 B( 10-C , 13-C ) :   1.3056
B( 10-C , 14-C ) :   1.3426 B( 11-C , 12-C ) :   0.1116 B( 11-C , 15-C ) :   1.4216
B( 11-C , 34-H ) :   0.9902 B( 12-C , 16-C ) :   1.4442 B( 12-C , 44-C ) :   0.9350
B( 13-C , 18-C ) :   1.4561 B( 13-C , 35-H ) :   0.9917 B( 14-C , 19-C ) :   1.4165
B( 14-C , 36-H ) :   0.9766 B( 15-C , 17-C ) :   1.4069 B( 15-C , 37-H ) :   0.9663
B( 16-C , 17-C ) :   1.4209 B( 16-C , 48-H ) :   0.9617 B( 17-C , 38-H ) :   0.9674
B( 18-C , 20-C ) :   1.3490 B( 18-C , 39-H ) :   0.9799 B( 19-C , 20-C ) :   1.3728
B( 19-C , 40-H ) :   0.9966 B( 20-C , 41-H ) :   0.9911 B( 44-C , 45-H ) :   0.9780
B( 44-C , 46-H ) :   0.9784 B( 44-C , 47-H ) :   0.9757

Dispersion correction           -0.121862622
FINAL SINGLE POINT ENERGY      -888.469587365699

DIPOLE MOMENT
-------------
                                X             Y             Z
Electronic contribution:      7.87630      -4.20996      -2.83360
Nuclear contribution   :     -8.05803       5.25271       3.26565
                        -----------------------------------------
Total Dipole Moment    :     -0.18173       1.04275       0.43205
                        -----------------------------------------
Magnitude (a.u.)       :      1.14325
Magnitude (Debye)      :      2.90590

Dispersion correction in the Hessian             ... done   (      2.3 sec)

VIBRATIONAL FREQUENCIES
-----------------------

Scaling factor for frequencies =  1.000000000  (already applied!)

   0:         0.00 cm**-1
   1:         0.00 cm**-1
   2:         0.00 cm**-1
   3:         0.00 cm**-1
   4:         0.00 cm**-1
   5:         0.00 cm**-1
   6:        33.31 cm**-1
   7:        43.21 cm**-1
   8:        47.80 cm**-1
   9:        83.98 cm**-1
  10:        87.21 cm**-1
  11:       103.00 cm**-1
  12:       118.40 cm**-1
  13:       119.68 cm**-1
  14:       133.48 cm**-1
  15:       171.97 cm**-1
  16:       181.57 cm**-1
  17:       204.52 cm**-1
  18:       232.62 cm**-1
  19:       275.81 cm**-1
  20:       286.87 cm**-1
  21:       307.09 cm**-1
  22:       337.92 cm**-1
  23:       360.83 cm**-1
  24:       371.34 cm**-1
  25:       387.17 cm**-1
  26:       423.50 cm**-1
  27:       437.43 cm**-1
  28:       453.06 cm**-1
  29:       469.22 cm**-1
  30:       497.91 cm**-1
  31:       510.15 cm**-1
  32:       522.07 cm**-1
  33:       536.95 cm**-1
  34:       567.44 cm**-1
  35:       618.23 cm**-1
  36:       631.19 cm**-1
  37:       637.91 cm**-1
  38:       720.40 cm**-1
  39:       734.11 cm**-1
  40:       740.59 cm**-1
  41:       775.56 cm**-1
  42:       784.21 cm**-1
  43:       790.28 cm**-1
  44:       793.19 cm**-1
  45:       802.92 cm**-1
  46:       830.24 cm**-1
  47:       849.33 cm**-1
  48:       862.43 cm**-1
  49:       883.66 cm**-1
  50:       894.12 cm**-1
  51:       905.66 cm**-1
  52:       923.56 cm**-1
  53:       940.25 cm**-1
  54:       953.38 cm**-1
  55:       975.65 cm**-1
  56:       987.63 cm**-1
  57:       992.71 cm**-1
  58:      1016.14 cm**-1
  59:      1019.56 cm**-1
  60:      1025.14 cm**-1
  61:      1026.23 cm**-1
  62:      1031.15 cm**-1
  63:      1036.40 cm**-1
  64:      1043.88 cm**-1
  65:      1046.63 cm**-1
  66:      1068.34 cm**-1
  67:      1071.63 cm**-1
  68:      1073.30 cm**-1
  69:      1088.71 cm**-1
  70:      1114.77 cm**-1
  71:      1128.70 cm**-1
  72:      1132.42 cm**-1
  73:      1156.76 cm**-1
  74:      1169.10 cm**-1
  75:      1183.70 cm**-1
  76:      1190.01 cm**-1
  77:      1205.67 cm**-1
  78:      1213.85 cm**-1
  79:      1217.34 cm**-1
  80:      1218.60 cm**-1
  81:      1220.47 cm**-1
  82:      1243.47 cm**-1
  83:      1264.96 cm**-1
  84:      1271.45 cm**-1
  85:      1280.93 cm**-1
  86:      1288.89 cm**-1
  87:      1303.57 cm**-1
  88:      1318.31 cm**-1
  89:      1323.13 cm**-1
  90:      1326.95 cm**-1
  91:      1341.47 cm**-1
  92:      1356.87 cm**-1
  93:      1366.22 cm**-1
  94:      1377.30 cm**-1
  95:      1383.99 cm**-1
  96:      1395.16 cm**-1
  97:      1401.73 cm**-1
  98:      1413.23 cm**-1
  99:      1423.43 cm**-1
 100:      1432.46 cm**-1
 101:      1438.00 cm**-1
 102:      1447.16 cm**-1
 103:      1489.07 cm**-1
 104:      1497.52 cm**-1
 105:      1503.04 cm**-1
 106:      1503.69 cm**-1
 107:      1507.14 cm**-1
 108:      1508.65 cm**-1
 109:      1517.25 cm**-1
 110:      1520.85 cm**-1
 111:      1526.71 cm**-1
 112:      1540.23 cm**-1
 113:      1553.51 cm**-1
 114:      1560.80 cm**-1
 115:      1665.90 cm**-1
 116:      1669.89 cm**-1
 117:      1679.00 cm**-1
 118:      1689.41 cm**-1
 119:      1709.73 cm**-1
 120:      3014.31 cm**-1
 121:      3016.96 cm**-1
 122:      3021.69 cm**-1
 123:      3056.47 cm**-1
 124:      3072.51 cm**-1
 125:      3079.86 cm**-1
 126:      3091.12 cm**-1
 127:      3100.08 cm**-1
 128:      3105.92 cm**-1
 129:      3109.15 cm**-1
 130:      3118.44 cm**-1
 131:      3133.43 cm**-1
 132:      3136.36 cm**-1
 133:      3149.62 cm**-1
 134:      3150.38 cm**-1
 135:      3167.37 cm**-1
 136:      3168.99 cm**-1
 137:      3188.14 cm**-1
 138:      3189.90 cm**-1
 139:      3203.73 cm**-1
 140:      3208.32 cm**-1
 141:      3213.33 cm**-1
 142:      3213.99 cm**-1
 143:      3224.17 cm**-1
 144:      3225.26 cm**-1
 145:      3236.35 cm**-1
 146:      3467.37 cm**-1

IR SPECTRUM
-----------

 Mode   freq       eps      Int      T**2         TX        TY        TZ
       cm**-1   L/(mol*cm) km/mol    a.u.
----------------------------------------------------------------------------
  6:     33.31   0.000020    0.10  0.000186  (-0.007673  0.008016 -0.007910)
  7:     43.21   0.000127    0.64  0.000914  (-0.023409  0.005556  0.018303)
  8:     47.80   0.000174    0.88  0.001138  (-0.027442 -0.013810 -0.013923)
  9:     83.98   0.000077    0.39  0.000285  ( 0.010459 -0.012459 -0.004533)
 10:     87.21   0.000306    1.55  0.001095  (-0.002178  0.029726  0.014361)
 11:    103.00   0.000129    0.65  0.000391  (-0.007927  0.013934 -0.011558)
 12:    118.40   0.000460    2.33  0.001214  ( 0.010371  0.030987  0.012077)
 13:    119.68   0.000043    0.22  0.000112  (-0.008428 -0.005386 -0.003523)
 14:    133.48   0.000063    0.32  0.000148  (-0.001667  0.012058  0.000523)
 15:    171.97   0.001223    6.18  0.002220  (-0.042653  0.016822 -0.010842)
 16:    181.57   0.000331    1.67  0.000568  (-0.007916  0.022451  0.001297)
 17:    204.52   0.000021    0.11  0.000033  (-0.002392  0.005172  0.000388)
 18:    232.62   0.000095    0.48  0.000128  ( 0.008602  0.006992 -0.002234)
 19:    275.81   0.000887    4.48  0.001004  ( 0.021307 -0.023441 -0.000335)
 20:    286.87   0.000040    0.20  0.000044  ( 0.004708 -0.004353  0.001651)
 21:    307.09   0.000196    0.99  0.000199  (-0.011785 -0.000646 -0.007738)
 22:    337.92   0.001401    7.08  0.001293  ( 0.000867  0.034632  0.009658)
 23:    360.83   0.000246    1.25  0.000213  ( 0.010283 -0.001406  0.010266)
 24:    371.34   0.004470   22.59  0.003756  ( 0.057234 -0.014851  0.016118)
 25:    387.17   0.000258    1.30  0.000208  ( 0.012656  0.006315  0.002833)
 26:    423.50   0.000005    0.02  0.000004  ( 0.000614  0.001767  0.000176)
 27:    437.43   0.000207    1.04  0.000147  (-0.003724  0.007647  0.008667)
 28:    453.06   0.001794    9.07  0.001236  (-0.027688 -0.014087 -0.016448)
 29:    469.22   0.002208   11.16  0.001469  (-0.024126  0.029338 -0.005096)
 30:    497.91   0.000193    0.98  0.000121  (-0.010390  0.001148 -0.003420)
 31:    510.15   0.001338    6.76  0.000818  (-0.001688 -0.028454 -0.002414)
 32:    522.07   0.003781   19.11  0.002260  ( 0.046081  0.004382  0.010826)
 33:    536.95   0.000589    2.98  0.000343  (-0.015574  0.008815 -0.004726)
 34:    567.44   0.000357    1.80  0.000196  ( 0.004724  0.011134  0.007076)
 35:    618.23   0.002667   13.48  0.001346  ( 0.007343  0.035311  0.006728)
 36:    631.19   0.000199    1.01  0.000098  (-0.008189 -0.005505 -0.001054)
 37:    637.91   0.000003    0.01  0.000001  ( 0.000223 -0.000879  0.000687)
 38:    720.40   0.000682    3.44  0.000295  (-0.007491 -0.012156 -0.009560)
 39:    734.11   0.006742   34.07  0.002866  ( 0.006776  0.052905  0.004600)
 40:    740.59   0.001227    6.20  0.000517  ( 0.014822 -0.016628  0.004565)
 41:    775.56   0.004224   21.35  0.001700  ( 0.000744 -0.040935 -0.004846)
 42:    784.21   0.014838   74.98  0.005904  ( 0.017649  0.074473  0.006833)
 43:    790.28   0.000438    2.21  0.000173  ( 0.010211  0.007971  0.002267)
 44:    793.19   0.000660    3.33  0.000260  (-0.005727  0.015052 -0.000427)
 45:    802.92   0.004555   23.02  0.001770  ( 0.028561 -0.030735  0.003136)
 46:    830.24   0.001139    5.76  0.000428  (-0.019697  0.003387 -0.005366)
 47:    849.33   0.000882    4.46  0.000324  ( 0.015209 -0.003239  0.009071)
 48:    862.43   0.000134    0.68  0.000048  ( 0.005337 -0.004231  0.001413)
 49:    883.66   0.003577   18.08  0.001263  (-0.031719  0.008209 -0.013778)
 50:    894.12   0.000556    2.81  0.000194  ( 0.008563 -0.005483  0.009517)
 51:    905.66   0.000152    0.77  0.000052  ( 0.000100  0.003846  0.006131)
 52:    923.56   0.000256    1.29  0.000086  (-0.006332  0.004220 -0.005334)
 53:    940.25   0.002036   10.29  0.000676  ( 0.022237 -0.012925  0.003759)
 54:    953.38   0.002168   10.96  0.000710  (-0.023351  0.004589 -0.011971)
 55:    975.65   0.000595    3.01  0.000190  ( 0.013571 -0.000688  0.002395)
 56:    987.63   0.000487    2.46  0.000154  (-0.002402  0.010858  0.005492)
 57:    992.71   0.000039    0.20  0.000012  (-0.001077 -0.001303  0.003063)
 58:   1016.14   0.000391    1.97  0.000120  ( 0.005527  0.004412 -0.008362)
 59:   1019.56   0.002819   14.25  0.000863  ( 0.020334 -0.019457 -0.008418)
 60:   1025.14   0.000179    0.90  0.000054  (-0.000226 -0.005691 -0.004689)
 61:   1026.23   0.001659    8.38  0.000504  (-0.000234 -0.021532 -0.006387)
 62:   1031.15   0.000086    0.43  0.000026  (-0.000752 -0.000800  0.004973)
 63:   1036.40   0.000006    0.03  0.000002  ( 0.000565 -0.000530 -0.001112)
 64:   1043.88   0.000003    0.02  0.000001  (-0.000340  0.000835  0.000312)
 65:   1046.63   0.001382    6.98  0.000412  (-0.014902 -0.006499  0.012157)
 66:   1068.34   0.000268    1.35  0.000078  (-0.008065 -0.002061 -0.002998)
 67:   1071.63   0.003928   19.85  0.001144  (-0.030119  0.013746 -0.006904)
 68:   1073.30   0.000316    1.60  0.000092  ( 0.000960 -0.009510  0.000652)
 69:   1088.71   0.000772    3.90  0.000221  (-0.006959  0.003053  0.012792)
 70:   1114.77   0.000379    1.91  0.000106  (-0.000065 -0.010211  0.001303)
 71:   1128.70   0.003489   17.63  0.000965  ( 0.025851 -0.001296  0.017166)
 72:   1132.42   0.007347   37.13  0.002025  ( 0.044945  0.001486 -0.001492)
 73:   1156.76   0.001094    5.53  0.000295  ( 0.014944 -0.001680 -0.008298)
 74:   1169.10   0.001614    8.16  0.000431  (-0.003435 -0.012666  0.016081)
 75:   1183.70   0.000144    0.73  0.000038  (-0.001356  0.002702 -0.005377)
 76:   1190.01   0.000437    2.21  0.000115  ( 0.008014  0.001525  0.006925)
 77:   1205.67   0.006567   33.18  0.001700  (-0.017480 -0.028881 -0.023663)
 78:   1213.85   0.000263    1.33  0.000068  (-0.007335  0.003362  0.001578)
 79:   1217.34   0.001933    9.77  0.000496  (-0.011711  0.018187  0.005256)
 80:   1218.60   0.000919    4.65  0.000235  ( 0.010734  0.002203  0.010739)
 81:   1220.47   0.001224    6.19  0.000313  ( 0.012097  0.012716  0.002217)
 82:   1243.47   0.000219    1.11  0.000055  (-0.002354 -0.003447 -0.006134)
 83:   1264.96   0.001826    9.23  0.000450  ( 0.008125 -0.005566 -0.018798)
 84:   1271.45   0.000667    3.37  0.000164  ( 0.006626 -0.010316  0.003660)
 85:   1280.93   0.000795    4.02  0.000194  (-0.012358  0.005911 -0.002431)
 86:   1288.89   0.003118   15.76  0.000755  ( 0.021348 -0.016799 -0.004110)
 87:   1303.57   0.000307    1.55  0.000074  (-0.003986 -0.004606  0.006037)
 88:   1318.31   0.000528    2.67  0.000125  (-0.006163  0.000535 -0.009311)
 89:   1323.13   0.002007   10.14  0.000473  ( 0.021471 -0.003000 -0.001854)
 90:   1326.95   0.002785   14.07  0.000655  ( 0.018294 -0.011921  0.013344)
 91:   1341.47   0.000378    1.91  0.000088  ( 0.004740 -0.004442 -0.006770)
 92:   1356.87   0.001879    9.49  0.000432  ( 0.014012 -0.014656 -0.004577)
 93:   1366.22   0.000299    1.51  0.000068  (-0.004553 -0.003536  0.005924)
 94:   1377.30   0.001416    7.16  0.000321  ( 0.006474 -0.013784  0.009435)
 95:   1383.99   0.001885    9.53  0.000425  (-0.011355  0.014156  0.009786)
 96:   1395.16   0.000771    3.90  0.000172  (-0.002724  0.012261  0.003827)
 97:   1401.73   0.001320    6.67  0.000294  (-0.008819 -0.008267 -0.012159)
 98:   1413.23   0.012333   62.33  0.002723  (-0.050796  0.011016  0.004676)
 99:   1423.43   0.006708   33.90  0.001471  ( 0.027141 -0.026810  0.003899)
100:   1432.46   0.003231   16.33  0.000704  (-0.019976  0.015684 -0.007675)
101:   1438.00   0.002928   14.80  0.000635  (-0.001904 -0.018849 -0.016629)
102:   1447.16   0.002119   10.71  0.000457  (-0.017120  0.012751  0.001107)
103:   1489.07   0.000601    3.04  0.000126  (-0.007316 -0.003394 -0.007802)
104:   1497.52   0.003011   15.22  0.000628  ( 0.004039 -0.020282  0.014137)
105:   1503.04   0.001401    7.08  0.000291  (-0.003493 -0.012490 -0.011080)
106:   1503.69   0.000647    3.27  0.000134  (-0.000556 -0.011567  0.000482)
107:   1507.14   0.001535    7.76  0.000318  (-0.005192 -0.013800 -0.010019)
108:   1508.65   0.001870    9.45  0.000387  ( 0.006717  0.014148 -0.011894)
109:   1517.25   0.000450    2.27  0.000093  (-0.007190 -0.005417 -0.003398)
110:   1520.85   0.003952   19.97  0.000811  (-0.012255 -0.004917  0.025230)
111:   1526.71   0.003119   15.76  0.000638  ( 0.024122  0.001399  0.007329)
112:   1540.23   0.006207   31.37  0.001258  ( 0.033058 -0.008094  0.009957)
113:   1553.51   0.002776   14.03  0.000558  (-0.021201  0.004922 -0.009165)
114:   1560.80   0.004960   25.07  0.000992  ( 0.015243  0.009918 -0.025709)
115:   1665.90   0.000233    1.18  0.000044  ( 0.003204  0.001597 -0.005552)
116:   1669.89   0.015750   79.59  0.002943  (-0.019279 -0.050345 -0.006086)
117:   1679.00   0.004939   24.96  0.000918  (-0.008926 -0.028949  0.000472)
118:   1689.41   0.001678    8.48  0.000310  (-0.011679  0.011808 -0.005845)
119:   1709.73   0.000706    3.57  0.000129  ( 0.006057  0.009095  0.003068)
120:   3014.31   0.015903   80.37  0.001646  ( 0.038198 -0.012914  0.004532)
121:   3016.96   0.002486   12.56  0.000257  ( 0.001833  0.007274 -0.014171)
122:   3021.69   0.023415  118.33  0.002418  ( 0.043117 -0.000465  0.023641)
123:   3056.47   0.002969   15.00  0.000303  (-0.012384 -0.006362  0.010455)
124:   3072.51   0.065364  330.32  0.006639  ( 0.068825  0.040911  0.015105)
125:   3079.86   0.013362   67.53  0.001354  (-0.029572 -0.009107 -0.019910)
126:   3091.12   0.000912    4.61  0.000092  (-0.008833 -0.003449 -0.001457)
127:   3100.08   0.000846    4.28  0.000085  ( 0.007933  0.001183 -0.004569)
128:   3105.92   0.002182   11.03  0.000219  ( 0.006407  0.013331 -0.000713)
129:   3109.15   0.003352   16.94  0.000336  (-0.013140  0.003897  0.012189)
130:   3118.44   0.001623    8.20  0.000162  ( 0.001694 -0.011685 -0.004802)
131:   3133.43   0.001915    9.68  0.000191  (-0.006772  0.003630  0.011477)
132:   3136.36   0.001286    6.50  0.000128  (-0.007036  0.008243  0.003239)
133:   3149.62   0.001197    6.05  0.000119  (-0.005815  0.005390  0.007462)
134:   3150.38   0.001919    9.70  0.000190  (-0.012586 -0.001009  0.005540)
135:   3167.37   0.002043   10.32  0.000201  (-0.001994 -0.012763  0.005863)
136:   3168.99   0.000876    4.43  0.000086  (-0.009025  0.000349 -0.002178)
137:   3188.14   0.000734    3.71  0.000072  (-0.004912  0.002056 -0.006593)
138:   3189.90   0.000572    2.89  0.000056  (-0.006634  0.000862  0.003353)
139:   3203.73   0.000405    2.05  0.000039  ( 0.006009 -0.000442 -0.001787)
140:   3208.32   0.000298    1.51  0.000029  ( 0.004087  0.000758  0.003427)
141:   3213.33   0.001113    5.63  0.000108  ( 0.003847  0.001486 -0.009544)
142:   3213.99   0.000241    1.22  0.000023  (-0.004389 -0.002006  0.000360)
143:   3224.17   0.000765    3.87  0.000074  (-0.008026 -0.002077 -0.002303)
144:   3225.26   0.000567    2.87  0.000055  (-0.007405 -0.000088 -0.000239)
145:   3236.35   0.000144    0.73  0.000014  ( 0.001047  0.000116 -0.003575)
146:   3467.37   0.008977   45.37  0.000808  ( 0.003270 -0.025258  0.012621)

--------------------------
THERMOCHEMISTRY AT 298.15K
--------------------------

Temperature         ... 298.15 K
Pressure            ... 1.00 atm
Total Mass          ... 295.45 AMU

Throughout the following assumptions are being made:
  (1) The electronic state is orbitally nondegenerate
  (2) There are no thermally accessible electronically excited states
  (3) Hindered rotations indicated by low frequency modes are not
      treated as such but are treated as vibrations and this may
      cause some error
  (4) All equations used are the standard statistical mechanics
      equations for an ideal gas
  (5) All vibrations are strictly harmonic

freq.      33.31  E(vib)   ...       0.55
freq.      43.21  E(vib)   ...       0.53
freq.      47.80  E(vib)   ...       0.53
freq.      83.98  E(vib)   ...       0.48
freq.      87.21  E(vib)   ...       0.48
freq.     103.00  E(vib)   ...       0.46
freq.     118.40  E(vib)   ...       0.44
freq.     119.68  E(vib)   ...       0.44
freq.     133.48  E(vib)   ...       0.42
freq.     171.97  E(vib)   ...       0.38
freq.     181.57  E(vib)   ...       0.37
freq.     204.52  E(vib)   ...       0.35
freq.     232.62  E(vib)   ...       0.32
freq.     275.81  E(vib)   ...       0.28
freq.     286.87  E(vib)   ...       0.27
freq.     307.09  E(vib)   ...       0.26
freq.     337.92  E(vib)   ...       0.24
freq.     360.83  E(vib)   ...       0.22
freq.     371.34  E(vib)   ...       0.21
freq.     387.17  E(vib)   ...       0.20
freq.     423.50  E(vib)   ...       0.18
freq.     437.43  E(vib)   ...       0.17
freq.     453.06  E(vib)   ...       0.16
freq.     469.22  E(vib)   ...       0.16
freq.     497.91  E(vib)   ...       0.14
freq.     510.15  E(vib)   ...       0.14
freq.     522.07  E(vib)   ...       0.13
freq.     536.95  E(vib)   ...       0.12
freq.     567.44  E(vib)   ...       0.11
freq.     618.23  E(vib)   ...       0.09
freq.     631.19  E(vib)   ...       0.09
freq.     637.91  E(vib)   ...       0.09
freq.     720.40  E(vib)   ...       0.07
freq.     734.11  E(vib)   ...       0.06
freq.     740.59  E(vib)   ...       0.06
freq.     775.56  E(vib)   ...       0.05
freq.     784.21  E(vib)   ...       0.05
freq.     790.28  E(vib)   ...       0.05
freq.     793.19  E(vib)   ...       0.05
freq.     802.92  E(vib)   ...       0.05
freq.     830.24  E(vib)   ...       0.04
freq.     849.33  E(vib)   ...       0.04
freq.     862.43  E(vib)   ...       0.04
freq.     883.66  E(vib)   ...       0.04
freq.     894.12  E(vib)   ...       0.03
freq.     905.66  E(vib)   ...       0.03
freq.     923.56  E(vib)   ...       0.03
freq.     940.25  E(vib)   ...       0.03
freq.     953.38  E(vib)   ...       0.03
freq.     975.65  E(vib)   ...       0.03
freq.     987.63  E(vib)   ...       0.02
freq.     992.71  E(vib)   ...       0.02
freq.    1016.14  E(vib)   ...       0.02
freq.    1019.56  E(vib)   ...       0.02
freq.    1025.14  E(vib)   ...       0.02
freq.    1026.23  E(vib)   ...       0.02
freq.    1031.15  E(vib)   ...       0.02
freq.    1036.40  E(vib)   ...       0.02
freq.    1043.88  E(vib)   ...       0.02
freq.    1046.63  E(vib)   ...       0.02
freq.    1068.34  E(vib)   ...       0.02
freq.    1071.63  E(vib)   ...       0.02
freq.    1073.30  E(vib)   ...       0.02
freq.    1088.71  E(vib)   ...       0.02
freq.    1114.77  E(vib)   ...       0.01
freq.    1128.70  E(vib)   ...       0.01
freq.    1132.42  E(vib)   ...       0.01
freq.    1156.76  E(vib)   ...       0.01
freq.    1169.10  E(vib)   ...       0.01
freq.    1183.70  E(vib)   ...       0.01
freq.    1190.01  E(vib)   ...       0.01
freq.    1205.67  E(vib)   ...       0.01
freq.    1213.85  E(vib)   ...       0.01
freq.    1217.34  E(vib)   ...       0.01
freq.    1218.60  E(vib)   ...       0.01
freq.    1220.47  E(vib)   ...       0.01
freq.    1243.47  E(vib)   ...       0.01
freq.    1264.96  E(vib)   ...       0.01
freq.    1271.45  E(vib)   ...       0.01
freq.    1280.93  E(vib)   ...       0.01
freq.    1288.89  E(vib)   ...       0.01
freq.    1303.57  E(vib)   ...       0.01
freq.    1318.31  E(vib)   ...       0.01
freq.    1323.13  E(vib)   ...       0.01
freq.    1326.95  E(vib)   ...       0.01
freq.    1341.47  E(vib)   ...       0.01
freq.    1356.87  E(vib)   ...       0.01
freq.    1366.22  E(vib)   ...       0.01
freq.    1377.30  E(vib)   ...       0.01
freq.    1383.99  E(vib)   ...       0.00
freq.    1395.16  E(vib)   ...       0.00
freq.    1401.73  E(vib)   ...       0.00
freq.    1413.23  E(vib)   ...       0.00
freq.    1423.43  E(vib)   ...       0.00
freq.    1432.46  E(vib)   ...       0.00
freq.    1438.00  E(vib)   ...       0.00
freq.    1447.16  E(vib)   ...       0.00
freq.    1489.07  E(vib)   ...       0.00
freq.    1497.52  E(vib)   ...       0.00
freq.    1503.04  E(vib)   ...       0.00
freq.    1503.69  E(vib)   ...       0.00
freq.    1507.14  E(vib)   ...       0.00
freq.    1508.65  E(vib)   ...       0.00
freq.    1517.25  E(vib)   ...       0.00
freq.    1520.85  E(vib)   ...       0.00
freq.    1526.71  E(vib)   ...       0.00
freq.    1540.23  E(vib)   ...       0.00
freq.    1553.51  E(vib)   ...       0.00
freq.    1560.80  E(vib)   ...       0.00
freq.    1665.90  E(vib)   ...       0.00
freq.    1669.89  E(vib)   ...       0.00
freq.    1679.00  E(vib)   ...       0.00
freq.    1689.41  E(vib)   ...       0.00
freq.    1709.73  E(vib)   ...       0.00
freq.    3014.31  E(vib)   ...       0.00
freq.    3016.96  E(vib)   ...       0.00
freq.    3021.69  E(vib)   ...       0.00
freq.    3056.47  E(vib)   ...       0.00
freq.    3072.51  E(vib)   ...       0.00
freq.    3079.86  E(vib)   ...       0.00
freq.    3091.12  E(vib)   ...       0.00
freq.    3100.08  E(vib)   ...       0.00
freq.    3105.92  E(vib)   ...       0.00
freq.    3109.15  E(vib)   ...       0.00
freq.    3118.44  E(vib)   ...       0.00
freq.    3133.43  E(vib)   ...       0.00
freq.    3136.36  E(vib)   ...       0.00
freq.    3149.62  E(vib)   ...       0.00
freq.    3150.38  E(vib)   ...       0.00
freq.    3167.37  E(vib)   ...       0.00
freq.    3168.99  E(vib)   ...       0.00
freq.    3188.14  E(vib)   ...       0.00
freq.    3189.90  E(vib)   ...       0.00
freq.    3203.73  E(vib)   ...       0.00
freq.    3208.32  E(vib)   ...       0.00
freq.    3213.33  E(vib)   ...       0.00
freq.    3213.99  E(vib)   ...       0.00
freq.    3224.17  E(vib)   ...       0.00
freq.    3225.26  E(vib)   ...       0.00
freq.    3236.35  E(vib)   ...       0.00
freq.    3467.37  E(vib)   ...       0.00

------------
INNER ENERGY

Rotational constants in cm-1:     0.013807     0.008755     0.007404

                             ****ORCA TERMINATED NORMALLY****
TOTAL RUN TIME: 0 days 7 hours 55 minutes 14 seconds 675 msec
