                         Program Version 5.0.4 -  RELEASE  -
|  1> ! wB97X-D3BJ TightOpt Freq def2-TZVP def2/J RIJCOSX TightSCF defgrid3 CHELPG
|  2> %maxcore 3400
|  3>
|  4> %pal nprocs 8
|  5> end
|  6>
|  7> %chelpg
|  8> grid 0.1
|  9> rmax 3.0
| 10> end
| 11>
| 12> *xyz 1 1
| 13> N          -2.19328000       0.19935300      -0.49271600
| 14> N           0.08693600       0.83027900       0.77604700
| 15> C          -0.80262800       2.05621100       0.67380700
| 16> C          -1.07138300       2.36363400      -0.79585600
| 17> C          -2.10976300       1.74840100       1.40122000
| 18> C          -1.79899100       1.18859900      -1.49208100
| 19> C          -3.00913500       0.84155400       0.53641300
| 20> C          -2.74782500      -1.02961300      -1.04671300
| 21> C          -2.79284400      -2.15494600       0.00080600
| 22> C           1.41874100       0.96249600       0.18538600
| 23> C          -1.53629600      -2.18584300       0.83873000
| 24> C           1.75139164       0.16905843      -0.89579297
| 25> C           2.30820567       1.87260548       0.73188033
| 26> C          -0.30350300      -2.49922700       0.26303900
| 27> C          -1.56652200      -1.84120100       2.18801600
| 28> C           3.02496530       0.29782824      -1.43806388
| 29> C           3.58463051       2.00230070       0.19438022
| 30> C           3.92689697       1.20079473      -0.89656388
| 31> C           0.86766300      -2.44417500       1.00706000
| 32> C          -0.39660400      -1.78869200       2.94158000
| 33> C           0.82736800      -2.07954100       2.34980000
| 34> H          -0.26169900       2.87364400       1.15090800
| 35> H          -0.14364700       2.60777400      -1.31493400
| 36> H          -1.68764200       3.26464400      -0.81481200
| 37> H          -2.61017000       2.69329400       1.61904900
| 38> H          -1.89625600       1.27725500       2.36520600
| 39> H          -2.66731800       1.55883900      -2.05577300
| 40> H          -1.13472500       0.70277300      -2.21016900
| 41> H          -3.47629200       0.08103900       1.15813700
| 42> H          -3.82045600       1.42251900       0.07417000
| 43> H          -3.74861300      -0.87457900      -1.47531500
| 44> H          -2.09197300      -1.32943700      -1.86884500
| 45> H          -2.92701400      -3.10374500      -0.52495000
| 46> H          -3.66232700      -2.04044600       0.65133400
| 47> H          -0.26100700      -2.79589100      -0.78107800
| 48> H          -2.51817100      -1.62367400       2.66312700
| 49> H           3.30978980      -0.30916838      -2.28926996
| 50> H           4.91691844       1.29246766      -1.33074144
| 51> H           1.81505900      -2.69291200       0.54208700
| 52> H          -0.44538200      -1.53878400       3.99626700
| 53> H           1.73964400      -2.04994300       2.93488400
| 54> H           0.16691000       0.53260800       1.75045100
| 55> H          -0.49263100       0.09654400       0.30635600
| 56> H           2.00352020       2.49549498       1.56596499
| 57> H           4.28571484       2.69792460       0.60606958
| 58> C           0.73916010      -0.82579385      -1.49350213
| 59> H           1.07547496      -1.13968336      -2.45955891
| 60> H           0.65431452      -1.67741754      -0.85128853
| 61> H          -0.21561264      -0.35150887      -1.58495023
| 62> *
| 63>
| 64>
| 65>                          ****END OF INPUT****
 Total Charge           Charge          ....    1
 Multiplicity           Mult            ....    1
 Number of Electrons    NEL             ....  160
Dispersion correction           -0.127454116
FINAL SINGLE POINT ENERGY      -888.416621007680
Dispersion correction            ... done
Dispersion correction           -0.130129165
FINAL SINGLE POINT ENERGY      -888.426317366795
Dispersion correction            ... done
Dispersion correction           -0.124751011
FINAL SINGLE POINT ENERGY      -888.445850259080
Dispersion correction            ... done
FINAL SINGLE POINT ENERGY      -888.453542294159
FINAL SINGLE POINT ENERGY      -888.458419980204
FINAL SINGLE POINT ENERGY      -888.460945597791
FINAL SINGLE POINT ENERGY      -888.462715304534
FINAL SINGLE POINT ENERGY      -888.463900700370
FINAL SINGLE POINT ENERGY      -888.464680742379
FINAL SINGLE POINT ENERGY      -888.465173306119
FINAL SINGLE POINT ENERGY      -888.466508240249
FINAL SINGLE POINT ENERGY      -888.466750253661
FINAL SINGLE POINT ENERGY      -888.466969207805
FINAL SINGLE POINT ENERGY      -888.467046508682
FINAL SINGLE POINT ENERGY      -888.467067951808
FINAL SINGLE POINT ENERGY      -888.467076575209
FINAL SINGLE POINT ENERGY      -888.467078714476
Dispersion correction           -0.122614604
FINAL SINGLE POINT ENERGY      -888.467079035982
Dispersion correction            ... done
Dispersion correction           -0.122607233
FINAL SINGLE POINT ENERGY      -888.467078974243
Dispersion correction            ... done
                    ***********************HURRAY********************

CARTESIAN COORDINATES (ANGSTROEM)
---------------------------------
  N     -2.349420    0.111359   -0.437650
  N      0.070039    0.769200    0.583632
  C     -0.797407    2.005754    0.407916
  C     -1.160061    2.164497   -1.065593
  C     -2.048463    1.850969    1.265871
  C     -2.127486    1.048635   -1.535417
  C     -3.016443    0.815908    0.655135
  C     -2.985966   -1.142720   -0.823709
  C     -2.936207   -2.183041    0.310150
  C      1.462430    0.900839    0.141927
  C     -1.600157   -2.188175    1.016134
  C      1.898756    0.366179   -1.063966
  C      2.313206    1.580570    1.005558
  C     -0.445721   -2.605273    0.351516
  C     -1.476040   -1.726553    2.324928
  C      3.248366    0.550539   -1.377620
  C      3.643365    1.751029    0.668303
  C      4.109654    1.231970   -0.534948
  C      0.800022   -2.525353    0.960470
  C     -0.230973   -1.650223    2.945081
  C      0.914487   -2.036841    2.258462
  H     -0.190648    2.844998    0.748210
  H     -0.252328    2.184890   -1.671383
  H     -1.623382    3.146582   -1.175000
  H     -2.523484    2.830934    1.337950
  H     -1.767963    1.567986    2.284916
  H     -3.076771    1.484261   -1.879479
  H     -1.701960    0.504366   -2.378745
  H     -3.320797    0.101106    1.415095
  H     -3.930435    1.306840    0.289964
  H     -4.027651   -0.995383   -1.145060
  H     -2.436177   -1.524512   -1.688628
  H     -3.141463   -3.164792   -0.124114
  H     -3.731595   -1.998364    1.034965
  H     -0.524512   -3.003717   -0.655650
  H     -2.364546   -1.436712    2.877173
  H      3.623160    0.140478   -2.309458
  H      5.150265    1.353373   -0.812000
  H      1.684608   -2.854464    0.426430
  H     -0.160303   -1.307562    3.972156
  H      1.885208   -1.984599    2.738190
  H      0.068867    0.486671    1.566984
  H     -0.474752    0.021838    0.112337
  H      1.934014    1.969172    1.946123
  H      4.311475    2.276693    1.339522
  C      1.017794   -0.374257   -2.036586
  H      1.565098   -1.213718   -2.467486
  H      0.113797   -0.776698   -1.581761
  H      0.722097    0.279036   -2.861645

 Multiplicity           Mult            ....    1
 Number of Electrons    NEL             ....  160
 Basis Dimension        Dim             ....  844

ORBITAL ENERGIES
----------------

  NO   OCC          E(Eh)            E(eV)
   0   2.0000     -14.648443      -398.6044
   1   2.0000     -14.540799      -395.6753
   2   2.0000     -10.469423      -284.8875
   3   2.0000     -10.454396      -284.4786
   4   2.0000     -10.425169      -283.6833
   5   2.0000     -10.423691      -283.6430
   6   2.0000     -10.422600      -283.6134
   7   2.0000     -10.419071      -283.5173
   8   2.0000     -10.411804      -283.3196
   9   2.0000     -10.410534      -283.2850
  10   2.0000     -10.409515      -283.2573
  11   2.0000     -10.403107      -283.0829
  12   2.0000     -10.398807      -282.9659
  13   2.0000     -10.397790      -282.9383
  14   2.0000     -10.397110      -282.9198
  15   2.0000     -10.396811      -282.9116
  16   2.0000     -10.394260      -282.8422
  17   2.0000     -10.393004      -282.8080
  18   2.0000     -10.391980      -282.7802
  19   2.0000     -10.391507      -282.7673
  20   2.0000     -10.390564      -282.7416
  21   2.0000     -10.389952      -282.7250
  22   2.0000      -1.277001       -34.7490
  23   2.0000      -1.203591       -32.7514
  24   2.0000      -1.130163       -30.7533
  25   2.0000      -1.120404       -30.4877
  26   2.0000      -1.077514       -29.3206
  27   2.0000      -1.044723       -28.4284
  28   2.0000      -1.037614       -28.2349
  29   2.0000      -1.025828       -27.9142
  30   2.0000      -1.006282       -27.3823
  31   2.0000      -0.999916       -27.2091
  32   2.0000      -0.977381       -26.5959
  33   2.0000      -0.951268       -25.8853
  34   2.0000      -0.919791       -25.0288
  35   2.0000      -0.903454       -24.5842
  36   2.0000      -0.876751       -23.8576
  37   2.0000      -0.869746       -23.6670
  38   2.0000      -0.860072       -23.4037
  39   2.0000      -0.849930       -23.1278
  40   2.0000      -0.826151       -22.4807
  41   2.0000      -0.813168       -22.1274
  42   2.0000      -0.804243       -21.8846
  43   2.0000      -0.783664       -21.3246
  44   2.0000      -0.764646       -20.8071
  45   2.0000      -0.746276       -20.3072
  46   2.0000      -0.737951       -20.0807
  47   2.0000      -0.728415       -19.8212
  48   2.0000      -0.712979       -19.4011
  49   2.0000      -0.700824       -19.0704
  50   2.0000      -0.697956       -18.9923
  51   2.0000      -0.694940       -18.9103
  52   2.0000      -0.685322       -18.6486
  53   2.0000      -0.671755       -18.2794
  54   2.0000      -0.668977       -18.2038
  55   2.0000      -0.666996       -18.1499
  56   2.0000      -0.660072       -17.9615
  57   2.0000      -0.653732       -17.7890
  58   2.0000      -0.648988       -17.6599
  59   2.0000      -0.643250       -17.5037
  60   2.0000      -0.636766       -17.3273
  61   2.0000      -0.628726       -17.1085
  62   2.0000      -0.625939       -17.0327
  63   2.0000      -0.619716       -16.8633
  64   2.0000      -0.609316       -16.5803
  65   2.0000      -0.601644       -16.3716
  66   2.0000      -0.597441       -16.2572
  67   2.0000      -0.587692       -15.9919
  68   2.0000      -0.581294       -15.8178
  69   2.0000      -0.577431       -15.7127
  70   2.0000      -0.576824       -15.6962
  71   2.0000      -0.565348       -15.3839
  72   2.0000      -0.560551       -15.2534
  73   2.0000      -0.555763       -15.1231
  74   2.0000      -0.548655       -14.9297
  75   2.0000      -0.481894       -13.1130
  76   2.0000      -0.471550       -12.8315
  77   2.0000      -0.468414       -12.7462
  78   2.0000      -0.462285       -12.5794
  79   2.0000      -0.454064       -12.3557
  80   0.0000      -0.070105        -1.9076
  81   0.0000      -0.061991        -1.6869
  82   0.0000      -0.057050        -1.5524
  83   0.0000      -0.047628        -1.2960
  84   0.0000      -0.022203        -0.6042

MULLIKEN ATOMIC CHARGES
-----------------------
   0 N :   -0.249432
   1 N :   -0.023654
   2 C :    0.067219
   3 C :   -0.277361
   4 C :   -0.262216
   5 C :   -0.186981
   6 C :   -0.147116
   7 C :   -0.186107
   8 C :   -0.304658
   9 C :    0.274568
  10 C :    0.236243
  11 C :   -0.085980
  12 C :   -0.339408
  13 C :   -0.231627
  14 C :   -0.255650
  15 C :   -0.101612
  16 C :   -0.059642
  17 C :   -0.146238
  18 C :   -0.091373
  19 C :   -0.169296
  20 C :   -0.144813
  21 H :    0.165527
  22 H :    0.153634
  23 H :    0.149645
  24 H :    0.154368
  25 H :    0.140959
  26 H :    0.136192
  27 H :    0.147817
  28 H :    0.125164
  29 H :    0.133754
  30 H :    0.131394
  31 H :    0.134780
  32 H :    0.157647
  33 H :    0.159819
  34 H :    0.145124
  35 H :    0.146740
  36 H :    0.149317
  37 H :    0.153191
  38 H :    0.139694
  39 H :    0.145868
  40 H :    0.144282
  41 H :    0.256598
  42 H :    0.180251
  43 H :    0.142542
  44 H :    0.153240
  45 C :   -0.386844
  46 H :    0.162963
  47 H :    0.102100
  48 H :    0.159368
Sum of atomic charges:    1.0000000

LOEWDIN ATOMIC CHARGES
----------------------
   0 N :    0.079778
   1 N :    0.281548
   2 C :   -0.224820
   3 C :   -0.211084
   4 C :   -0.218773
   5 C :   -0.264198
   6 C :   -0.252362
   7 C :   -0.267451
   8 C :   -0.204748
   9 C :   -0.161874
  10 C :   -0.151400
  11 C :   -0.141397
  12 C :   -0.112271
  13 C :   -0.118646
  14 C :   -0.124738
  15 C :   -0.084987
  16 C :   -0.111576
  17 C :   -0.102615
  18 C :   -0.129156
  19 C :   -0.152561
  20 C :   -0.142804
  21 H :    0.160043
  22 H :    0.146717
  23 H :    0.154339
  24 H :    0.154410
  25 H :    0.141216
  26 H :    0.131487
  27 H :    0.133206
  28 H :    0.136255
  29 H :    0.132918
  30 H :    0.133568
  31 H :    0.135388
  32 H :    0.155173
  33 H :    0.144618
  34 H :    0.151404
  35 H :    0.149532
  36 H :    0.157169
  37 H :    0.155643
  38 H :    0.150757
  39 H :    0.150392
  40 H :    0.150541
  41 H :    0.217666
  42 H :    0.208877
  43 H :    0.153003
  44 H :    0.154802
  45 C :   -0.239732
  46 H :    0.140777
  47 H :    0.119908
  48 H :    0.136059

  Mayer bond orders larger than 0.100000
B(  0-N ,  5-C ) :   0.8848 B(  0-N ,  6-C ) :   0.8829 B(  0-N ,  7-C ) :   0.9550
B(  0-N , 42-H ) :   0.1035 B(  1-N ,  2-C ) :   0.8594 B(  1-N ,  9-C ) :   0.8331
B(  1-N , 41-H ) :   0.8892 B(  1-N , 42-H ) :   0.8647 B(  2-C ,  3-C ) :   0.9816
B(  2-C ,  4-C ) :   0.9634 B(  2-C , 21-H ) :   0.9535 B(  3-C ,  5-C ) :   0.9757
B(  3-C , 22-H ) :   0.9729 B(  3-C , 23-H ) :   0.9653 B(  4-C ,  6-C ) :   0.9876
B(  4-C , 24-H ) :   0.9657 B(  4-C , 25-H ) :   0.9690 B(  5-C , 26-H ) :   0.9618
B(  5-C , 27-H ) :   0.9911 B(  6-C , 28-H ) :   0.9871 B(  6-C , 29-H ) :   0.9614
B(  7-C ,  8-C ) :   0.9569 B(  7-C , 30-H ) :   0.9723 B(  7-C , 31-H ) :   0.9800
B(  8-C , 10-C ) :   0.8530 B(  8-C , 32-H ) :   0.9813 B(  8-C , 33-H ) :   1.0010
B(  9-C , 11-C ) :   1.3722 B(  9-C , 12-C ) :   1.3764 B( 10-C , 13-C ) :   1.3062
B( 10-C , 14-C ) :   1.3362 B( 11-C , 12-C ) :   0.1050 B( 11-C , 15-C ) :   1.3852
B( 11-C , 45-C ) :   0.9361 B( 12-C , 16-C ) :   1.4692 B( 12-C , 43-H ) :   0.9737
B( 13-C , 18-C ) :   1.4324 B( 13-C , 34-H ) :   0.9903 B( 14-C , 19-C ) :   1.4096
B( 14-C , 35-H ) :   0.9752 B( 15-C , 17-C ) :   1.4490 B( 15-C , 36-H ) :   0.9685
B( 16-C , 17-C ) :   1.3876 B( 16-C , 44-H ) :   0.9623 B( 17-C , 37-H ) :   0.9657
B( 18-C , 20-C ) :   1.3602 B( 18-C , 38-H ) :   0.9809 B( 19-C , 20-C ) :   1.3896
B( 19-C , 39-H ) :   0.9993 B( 20-C , 40-H ) :   0.9878 B( 45-C , 46-H ) :   0.9768
B( 45-C , 47-H ) :   0.9854 B( 45-C , 48-H ) :   0.9651

Dispersion correction           -0.122606196
FINAL SINGLE POINT ENERGY      -888.467078867276

DIPOLE MOMENT
-------------
                                X             Y             Z
Electronic contribution:      9.77674      -2.01060       4.93682
Nuclear contribution   :     -9.96083       3.08466      -5.08476
                        -----------------------------------------
Total Dipole Moment    :     -0.18409       1.07406      -0.14794
                        -----------------------------------------
Magnitude (a.u.)       :      1.09972
Magnitude (Debye)      :      2.79526

Dispersion correction in the Hessian             ... done   (      1.9 sec)

VIBRATIONAL FREQUENCIES
-----------------------

Scaling factor for frequencies =  1.000000000  (already applied!)

   0:         0.00 cm**-1
   1:         0.00 cm**-1
   2:         0.00 cm**-1
   3:         0.00 cm**-1
   4:         0.00 cm**-1
   5:         0.00 cm**-1
   6:        35.89 cm**-1
   7:        45.90 cm**-1
   8:        53.31 cm**-1
   9:        78.97 cm**-1
  10:        87.48 cm**-1
  11:       102.82 cm**-1
  12:       121.96 cm**-1
  13:       133.71 cm**-1
  14:       156.51 cm**-1
  15:       178.72 cm**-1
  16:       189.14 cm**-1
  17:       211.47 cm**-1
  18:       242.57 cm**-1
  19:       258.69 cm**-1
  20:       279.68 cm**-1
  21:       302.92 cm**-1
  22:       343.24 cm**-1
  23:       363.80 cm**-1
  24:       392.69 cm**-1
  25:       405.36 cm**-1
  26:       427.81 cm**-1
  27:       436.91 cm**-1
  28:       444.62 cm**-1
  29:       472.71 cm**-1
  30:       499.35 cm**-1
  31:       511.23 cm**-1
  32:       518.42 cm**-1
  33:       533.00 cm**-1
  34:       562.89 cm**-1
  35:       617.10 cm**-1
  36:       625.66 cm**-1
  37:       638.27 cm**-1
  38:       726.02 cm**-1
  39:       734.93 cm**-1
  40:       736.83 cm**-1
  41:       775.73 cm**-1
  42:       786.68 cm**-1
  43:       791.54 cm**-1
  44:       793.83 cm**-1
  45:       809.32 cm**-1
  46:       829.42 cm**-1
  47:       845.63 cm**-1
  48:       860.70 cm**-1
  49:       880.52 cm**-1
  50:       897.52 cm**-1
  51:       902.40 cm**-1
  52:       919.96 cm**-1
  53:       942.18 cm**-1
  54:       950.46 cm**-1
  55:       976.66 cm**-1
  56:       987.32 cm**-1
  57:       993.14 cm**-1
  58:      1015.46 cm**-1
  59:      1018.00 cm**-1
  60:      1023.54 cm**-1
  61:      1026.83 cm**-1
  62:      1031.42 cm**-1
  63:      1037.72 cm**-1
  64:      1044.01 cm**-1
  65:      1046.37 cm**-1
  66:      1066.32 cm**-1
  67:      1068.76 cm**-1
  68:      1070.10 cm**-1
  69:      1092.81 cm**-1
  70:      1114.93 cm**-1
  71:      1128.93 cm**-1
  72:      1133.95 cm**-1
  73:      1150.06 cm**-1
  74:      1170.56 cm**-1
  75:      1184.32 cm**-1
  76:      1190.87 cm**-1
  77:      1201.76 cm**-1
  78:      1207.78 cm**-1
  79:      1213.87 cm**-1
  80:      1217.83 cm**-1
  81:      1233.24 cm**-1
  82:      1243.15 cm**-1
  83:      1263.55 cm**-1
  84:      1265.91 cm**-1
  85:      1276.33 cm**-1
  86:      1290.68 cm**-1
  87:      1302.45 cm**-1
  88:      1315.51 cm**-1
  89:      1324.99 cm**-1
  90:      1329.01 cm**-1
  91:      1343.25 cm**-1
  92:      1355.97 cm**-1
  93:      1366.51 cm**-1
  94:      1378.01 cm**-1
  95:      1382.90 cm**-1
  96:      1395.93 cm**-1
  97:      1400.44 cm**-1
  98:      1411.82 cm**-1
  99:      1421.65 cm**-1
 100:      1436.54 cm**-1
 101:      1437.92 cm**-1
 102:      1446.19 cm**-1
 103:      1486.13 cm**-1
 104:      1495.94 cm**-1
 105:      1503.54 cm**-1
 106:      1506.34 cm**-1
 107:      1508.86 cm**-1
 108:      1509.49 cm**-1
 109:      1518.41 cm**-1
 110:      1519.68 cm**-1
 111:      1523.38 cm**-1
 112:      1542.86 cm**-1
 113:      1553.67 cm**-1
 114:      1564.21 cm**-1
 115:      1666.31 cm**-1
 116:      1671.66 cm**-1
 117:      1678.22 cm**-1
 118:      1689.17 cm**-1
 119:      1707.72 cm**-1
 120:      3013.16 cm**-1
 121:      3014.60 cm**-1
 122:      3018.76 cm**-1
 123:      3078.16 cm**-1
 124:      3079.16 cm**-1
 125:      3091.71 cm**-1
 126:      3096.99 cm**-1
 127:      3103.99 cm**-1
 128:      3132.60 cm**-1
 129:      3133.32 cm**-1
 130:      3134.63 cm**-1
 131:      3140.47 cm**-1
 132:      3144.59 cm**-1
 133:      3149.12 cm**-1
 134:      3173.87 cm**-1
 135:      3178.80 cm**-1
 136:      3188.79 cm**-1
 137:      3191.08 cm**-1
 138:      3192.28 cm**-1
 139:      3200.00 cm**-1
 140:      3205.07 cm**-1
 141:      3205.66 cm**-1
 142:      3212.83 cm**-1
 143:      3222.74 cm**-1
 144:      3226.44 cm**-1
 145:      3236.49 cm**-1
 146:      3446.88 cm**-1

IR SPECTRUM
-----------

 Mode   freq       eps      Int      T**2         TX        TY        TZ
       cm**-1   L/(mol*cm) km/mol    a.u.
----------------------------------------------------------------------------
  6:     35.89   0.000069    0.35  0.000598  ( 0.022444 -0.009390  0.002502)
  7:     45.90   0.000114    0.58  0.000775  ( 0.021100  0.016809 -0.006857)
  8:     53.31   0.000184    0.93  0.001074  ( 0.012733 -0.028334 -0.010448)
  9:     78.97   0.000179    0.90  0.000707  ( 0.004332  0.026159 -0.002016)
 10:     87.48   0.000053    0.27  0.000187  ( 0.008220 -0.009247  0.005854)
 11:    102.82   0.000270    1.36  0.000818  ( 0.000323 -0.027604  0.007488)
 12:    121.96   0.000197    0.99  0.000504  ( 0.004853  0.021811  0.002121)
 13:    133.71   0.000093    0.47  0.000216  ( 0.001185  0.009979  0.010736)
 14:    156.51   0.000397    2.01  0.000791  (-0.028088  0.001187 -0.001070)
 15:    178.72   0.000597    3.02  0.001043  (-0.029449 -0.002960 -0.012930)
 16:    189.14   0.000638    3.22  0.001053  (-0.019573  0.022084 -0.013485)
 17:    211.47   0.000110    0.55  0.000162  ( 0.005264 -0.006268  0.009732)
 18:    242.57   0.000347    1.75  0.000447  ( 0.020991  0.002313 -0.000752)
 19:    258.69   0.000375    1.90  0.000453  ( 0.009253 -0.013847  0.013245)
 20:    279.68   0.000342    1.73  0.000381  (-0.004311  0.017678 -0.007073)
 21:    302.92   0.000044    0.22  0.000046  ( 0.002619 -0.004422  0.004380)
 22:    343.24   0.001878    9.49  0.001708  ( 0.023631 -0.032481  0.009700)
 23:    363.80   0.000067    0.34  0.000058  (-0.002553  0.002008  0.006871)
 24:    392.69   0.001343    6.79  0.001067  ( 0.028812 -0.001952  0.015274)
 25:    405.36   0.000391    1.98  0.000301  ( 0.017229  0.001495 -0.001393)
 26:    427.81   0.000044    0.22  0.000032  (-0.004265 -0.003637 -0.000907)
 27:    436.91   0.000728    3.68  0.000520  (-0.010855 -0.010599 -0.017025)
 28:    444.62   0.001498    7.57  0.001051  (-0.030246 -0.003391 -0.011171)
 29:    472.71   0.002137   10.80  0.001411  ( 0.015524 -0.031489  0.013342)
 30:    499.35   0.000251    1.27  0.000157  (-0.009777 -0.002369 -0.007472)
 31:    511.23   0.001192    6.02  0.000728  (-0.003181  0.024667 -0.010440)
 32:    518.42   0.001855    9.38  0.001117  ( 0.032162  0.003697 -0.008296)
 33:    533.00   0.000449    2.27  0.000263  ( 0.010096 -0.010192  0.007538)
 34:    562.89   0.000347    1.75  0.000193  (-0.008514  0.005759 -0.009320)
 35:    617.10   0.002989   15.11  0.001512  (-0.016404 -0.033537  0.010861)
 36:    625.66   0.000402    2.03  0.000201  ( 0.010807 -0.009116 -0.000787)
 37:    638.27   0.000001    0.01  0.000001  (-0.000131  0.000115 -0.000761)
 38:    726.02   0.000507    2.56  0.000218  ( 0.004745 -0.013951  0.000911)
 39:    734.93   0.003207   16.21  0.001362  (-0.011847 -0.033764  0.009034)
 40:    736.83   0.004175   21.10  0.001768  ( 0.001374  0.037490 -0.018993)
 41:    775.73   0.003874   19.58  0.001559  (-0.009463  0.036039 -0.013045)
 42:    786.68   0.015341   77.53  0.006086  (-0.004469 -0.071305  0.031326)
 43:    791.54   0.002219   11.21  0.000875  (-0.008289 -0.025381  0.012723)
 44:    793.83   0.000051    0.26  0.000020  ( 0.003443  0.000175  0.002845)
 45:    809.32   0.001715    8.67  0.000661  ( 0.022949 -0.008875  0.007473)
 46:    829.42   0.000876    4.43  0.000330  (-0.017933 -0.000733 -0.002752)
 47:    845.63   0.001007    5.09  0.000371  (-0.014801 -0.001099 -0.012297)
 48:    860.70   0.000072    0.36  0.000026  (-0.004078 -0.003052  0.000126)
 49:    880.52   0.003860   19.51  0.001368  (-0.034147 -0.000026 -0.014214)
 50:    897.52   0.000269    1.36  0.000094  ( 0.005829  0.002195  0.007409)
 51:    902.40   0.000105    0.53  0.000036  (-0.002793  0.004361 -0.003059)
 52:    919.96   0.000094    0.48  0.000032  ( 0.002354 -0.004867  0.001647)
 53:    942.18   0.002291   11.58  0.000759  ( 0.023762 -0.009215  0.010451)
 54:    950.46   0.001118    5.65  0.000367  (-0.014114 -0.005840 -0.011567)
 55:    976.66   0.000414    2.09  0.000132  (-0.011157 -0.002717  0.000627)
 56:    987.32   0.000624    3.16  0.000197  (-0.003272  0.013433 -0.002490)
 57:    993.14   0.000128    0.64  0.000040  ( 0.006298 -0.000377 -0.000519)
 58:   1015.46   0.004978   25.16  0.001530  ( 0.029313 -0.025617  0.003784)
 59:   1018.00   0.000221    1.12  0.000068  ( 0.007520 -0.000282 -0.003335)
 60:   1023.54   0.000929    4.69  0.000283  ( 0.001262 -0.016727  0.001360)
 61:   1026.83   0.000028    0.14  0.000009  (-0.001374  0.000297 -0.002556)
 62:   1031.42   0.000139    0.70  0.000042  ( 0.001642  0.003764 -0.005014)
 63:   1037.72   0.000004    0.02  0.000001  ( 0.000354 -0.000781 -0.000629)
 64:   1044.01   0.000024    0.12  0.000007  ( 0.002441  0.000774 -0.000870)
 65:   1046.37   0.001509    7.63  0.000450  ( 0.017477  0.004462 -0.011167)
 66:   1066.32   0.003689   18.64  0.001079  ( 0.030425 -0.002321  0.012182)
 67:   1068.76   0.000132    0.67  0.000039  ( 0.005484  0.002851  0.000609)
 68:   1070.10   0.000760    3.84  0.000222  ( 0.008896 -0.004464  0.011072)
 69:   1092.81   0.000435    2.20  0.000124  (-0.005768 -0.008096 -0.005027)
 70:   1114.93   0.000366    1.85  0.000102  ( 0.001323 -0.009930  0.001407)
 71:   1128.93   0.000389    1.97  0.000108  ( 0.004939  0.001793  0.008944)
 72:   1133.95   0.006195   31.31  0.001705  ( 0.037631  0.007356  0.015316)
 73:   1150.06   0.005584   28.22  0.001515  (-0.030880  0.006264  0.022852)
 74:   1170.56   0.000715    3.61  0.000191  (-0.000997  0.005970 -0.012411)
 75:   1184.32   0.000145    0.73  0.000038  (-0.002153 -0.000043 -0.005801)
 76:   1190.87   0.000115    0.58  0.000030  ( 0.004825  0.002477 -0.000890)
 77:   1201.76   0.002340   11.82  0.000608  (-0.022004 -0.009387  0.005938)
 78:   1207.78   0.006400   32.34  0.001654  ( 0.003269  0.040058  0.006190)
 79:   1213.87   0.000022    0.11  0.000006  ( 0.002176 -0.000883  0.000483)
 80:   1217.83   0.000784    3.96  0.000201  (-0.002273 -0.013982 -0.000471)
 81:   1233.24   0.001795    9.07  0.000454  (-0.020947 -0.003906 -0.000382)
 82:   1243.15   0.000313    1.58  0.000079  (-0.002868 -0.005813 -0.006052)
 83:   1263.55   0.001257    6.35  0.000310  (-0.016082  0.003758 -0.006129)
 84:   1265.91   0.001494    7.55  0.000368  ( 0.008297 -0.009390 -0.014537)
 85:   1276.33   0.000921    4.66  0.000225  (-0.009579  0.006951 -0.009228)
 86:   1290.68   0.002864   14.48  0.000693  (-0.020049  0.016295  0.005005)
 87:   1302.45   0.000354    1.79  0.000085  ( 0.002295 -0.007272  0.005166)
 88:   1315.51   0.002802   14.16  0.000665  (-0.023157 -0.000368 -0.011329)
 89:   1324.99   0.000777    3.92  0.000183  ( 0.002333 -0.002403  0.013103)
 90:   1329.01   0.001049    5.30  0.000246  (-0.014373  0.003025 -0.005522)
 91:   1343.25   0.001007    5.09  0.000234  (-0.011880  0.006187  0.007390)
 92:   1355.97   0.001842    9.31  0.000424  (-0.016905  0.011727 -0.000742)
 93:   1366.51   0.000398    2.01  0.000091  (-0.003087 -0.004926  0.007563)
 94:   1378.01   0.001135    5.73  0.000257  (-0.002167  0.008671 -0.013306)
 95:   1382.90   0.002735   13.82  0.000617  ( 0.014639 -0.019443 -0.004989)
 96:   1395.93   0.001844    9.32  0.000412  ( 0.008244 -0.018497 -0.001479)
 97:   1400.44   0.000918    4.64  0.000205  ( 0.003520 -0.012889 -0.005102)
 98:   1411.82   0.008543   43.17  0.001888  (-0.043452  0.000117  0.000367)
 99:   1421.65   0.005596   28.28  0.001228  ( 0.027866 -0.012560  0.017151)
100:   1436.54   0.002049   10.35  0.000445  (-0.004838  0.018212  0.009483)
101:   1437.92   0.002540   12.83  0.000551  (-0.008588  0.017257 -0.013402)
102:   1446.19   0.001099    5.55  0.000237  (-0.013953  0.003765 -0.005315)
103:   1486.13   0.001542    7.79  0.000324  (-0.013872  0.011297 -0.001926)
104:   1495.94   0.002097   10.60  0.000437  ( 0.001337 -0.007071  0.019638)
105:   1503.54   0.001061    5.36  0.000220  (-0.001935 -0.012712 -0.007404)
106:   1506.34   0.000880    4.45  0.000182  (-0.003403 -0.011345 -0.006476)
107:   1508.86   0.001211    6.12  0.000250  ( 0.006922 -0.014054  0.002241)
108:   1509.49   0.003069   15.51  0.000634  (-0.006999 -0.012426  0.020761)
109:   1518.41   0.000418    2.11  0.000086  ( 0.007334  0.005358  0.001855)
110:   1519.68   0.001318    6.66  0.000271  (-0.014058  0.002096  0.008282)
111:   1523.38   0.005760   29.11  0.001180  ( 0.020654 -0.010113 -0.025515)
112:   1542.86   0.004255   21.50  0.000861  ( 0.023564 -0.001110  0.017436)
113:   1553.67   0.002414   12.20  0.000485  ( 0.018639  0.000071  0.011724)
114:   1564.21   0.006723   33.97  0.001341  (-0.034084 -0.012024 -0.005908)
115:   1666.31   0.000388    1.96  0.000073  ( 0.003701  0.002282 -0.007334)
116:   1671.66   0.022261  112.50  0.004156  ( 0.018219  0.054507 -0.029202)
117:   1678.22   0.002599   13.14  0.000483  ( 0.013602  0.014629 -0.009184)
118:   1689.17   0.001352    6.83  0.000250  ( 0.010732 -0.006253  0.009773)
119:   1707.72   0.001359    6.87  0.000248  ( 0.011507  0.008697 -0.006349)
120:   3013.16   0.007605   38.43  0.000788  ( 0.023232 -0.015318  0.003647)
121:   3014.60   0.001982   10.02  0.000205  (-0.007684 -0.002834  0.011752)
122:   3018.76   0.021622  109.27  0.002235  ( 0.040710  0.001138  0.024012)
123:   3078.16   0.001528    7.72  0.000155  ( 0.010724  0.002235  0.005911)
124:   3079.16   0.002314   11.69  0.000235  (-0.003057 -0.002139 -0.014852)
125:   3091.71   0.002083   10.53  0.000210  (-0.011879 -0.008095 -0.001906)
126:   3096.99   0.002809   14.20  0.000283  (-0.015176  0.000567  0.007239)
127:   3103.99   0.001218    6.16  0.000122  ( 0.002932  0.008523 -0.006423)
128:   3132.60   0.000182    0.92  0.000018  (-0.001006 -0.001550 -0.003842)
129:   3133.32   0.001538    7.77  0.000153  ( 0.009655  0.001329  0.007631)
130:   3134.63   0.002979   15.05  0.000297  ( 0.010613 -0.009881 -0.009289)
131:   3140.47   0.003710   18.75  0.000369  ( 0.012486  0.014585 -0.000023)
132:   3144.59   0.001165    5.89  0.000116  (-0.001713  0.010460 -0.001807)
133:   3149.12   0.002911   14.71  0.000288  (-0.011535  0.008171  0.009413)
134:   3173.87   0.003730   18.85  0.000367  ( 0.017282  0.004927 -0.006617)
135:   3178.80   0.002294   11.59  0.000225  (-0.003471 -0.010427  0.010218)
136:   3188.79   0.000546    2.76  0.000053  ( 0.003465 -0.000038  0.006438)
137:   3191.08   0.000861    4.35  0.000084  ( 0.008794 -0.000615 -0.002548)
138:   3192.28   0.000443    2.24  0.000043  ( 0.004523 -0.002009 -0.004342)
139:   3200.00   0.050075  253.06  0.004883  ( 0.058718  0.037047  0.007941)
140:   3205.07   0.001240    6.27  0.000121  (-0.007494 -0.006484 -0.004750)
141:   3205.66   0.000202    1.02  0.000020  (-0.003395  0.002492  0.001402)
142:   3212.83   0.001256    6.35  0.000122  (-0.005973  0.002198  0.009029)
143:   3222.74   0.000368    1.86  0.000036  (-0.004294  0.000784  0.004074)
144:   3226.44   0.000561    2.84  0.000054  (-0.007248 -0.000552 -0.001210)
145:   3236.49   0.000082    0.41  0.000008  (-0.002609 -0.000876 -0.000549)
146:   3446.88   0.014330   72.42  0.001297  ( 0.004138  0.025659 -0.024937)

--------------------------
THERMOCHEMISTRY AT 298.15K
--------------------------

Temperature         ... 298.15 K
Pressure            ... 1.00 atm
Total Mass          ... 295.45 AMU

Throughout the following assumptions are being made:
  (1) The electronic state is orbitally nondegenerate
  (2) There are no thermally accessible electronically excited states
  (3) Hindered rotations indicated by low frequency modes are not
      treated as such but are treated as vibrations and this may
      cause some error
  (4) All equations used are the standard statistical mechanics
      equations for an ideal gas
  (5) All vibrations are strictly harmonic

freq.      35.89  E(vib)   ...       0.54
freq.      45.90  E(vib)   ...       0.53
freq.      53.31  E(vib)   ...       0.52
freq.      78.97  E(vib)   ...       0.49
freq.      87.48  E(vib)   ...       0.48
freq.     102.82  E(vib)   ...       0.46
freq.     121.96  E(vib)   ...       0.44
freq.     133.71  E(vib)   ...       0.42
freq.     156.51  E(vib)   ...       0.40
freq.     178.72  E(vib)   ...       0.37
freq.     189.14  E(vib)   ...       0.36
freq.     211.47  E(vib)   ...       0.34
freq.     242.57  E(vib)   ...       0.31
freq.     258.69  E(vib)   ...       0.30
freq.     279.68  E(vib)   ...       0.28
freq.     302.92  E(vib)   ...       0.26
freq.     343.24  E(vib)   ...       0.23
freq.     363.80  E(vib)   ...       0.22
freq.     392.69  E(vib)   ...       0.20
freq.     405.36  E(vib)   ...       0.19
freq.     427.81  E(vib)   ...       0.18
freq.     436.91  E(vib)   ...       0.17
freq.     444.62  E(vib)   ...       0.17
freq.     472.71  E(vib)   ...       0.15
freq.     499.35  E(vib)   ...       0.14
freq.     511.23  E(vib)   ...       0.14
freq.     518.42  E(vib)   ...       0.13
freq.     533.00  E(vib)   ...       0.13
freq.     562.89  E(vib)   ...       0.11
freq.     617.10  E(vib)   ...       0.09
freq.     625.66  E(vib)   ...       0.09
freq.     638.27  E(vib)   ...       0.09
freq.     726.02  E(vib)   ...       0.06
freq.     734.93  E(vib)   ...       0.06
freq.     736.83  E(vib)   ...       0.06
freq.     775.73  E(vib)   ...       0.05
freq.     786.68  E(vib)   ...       0.05
freq.     791.54  E(vib)   ...       0.05
freq.     793.83  E(vib)   ...       0.05
freq.     809.32  E(vib)   ...       0.05
freq.     829.42  E(vib)   ...       0.04
freq.     845.63  E(vib)   ...       0.04
freq.     860.70  E(vib)   ...       0.04
freq.     880.52  E(vib)   ...       0.04
freq.     897.52  E(vib)   ...       0.03
freq.     902.40  E(vib)   ...       0.03
freq.     919.96  E(vib)   ...       0.03
freq.     942.18  E(vib)   ...       0.03
freq.     950.46  E(vib)   ...       0.03
freq.     976.66  E(vib)   ...       0.03
freq.     987.32  E(vib)   ...       0.02
freq.     993.14  E(vib)   ...       0.02
freq.    1015.46  E(vib)   ...       0.02
freq.    1018.00  E(vib)   ...       0.02
freq.    1023.54  E(vib)   ...       0.02
freq.    1026.83  E(vib)   ...       0.02
freq.    1031.42  E(vib)   ...       0.02
freq.    1037.72  E(vib)   ...       0.02
freq.    1044.01  E(vib)   ...       0.02
freq.    1046.37  E(vib)   ...       0.02
freq.    1066.32  E(vib)   ...       0.02
freq.    1068.76  E(vib)   ...       0.02
freq.    1070.10  E(vib)   ...       0.02
freq.    1092.81  E(vib)   ...       0.02
freq.    1114.93  E(vib)   ...       0.01
freq.    1128.93  E(vib)   ...       0.01
freq.    1133.95  E(vib)   ...       0.01
freq.    1150.06  E(vib)   ...       0.01
freq.    1170.56  E(vib)   ...       0.01
freq.    1184.32  E(vib)   ...       0.01
freq.    1190.87  E(vib)   ...       0.01
freq.    1201.76  E(vib)   ...       0.01
freq.    1207.78  E(vib)   ...       0.01
freq.    1213.87  E(vib)   ...       0.01
freq.    1217.83  E(vib)   ...       0.01
freq.    1233.24  E(vib)   ...       0.01
freq.    1243.15  E(vib)   ...       0.01
freq.    1263.55  E(vib)   ...       0.01
freq.    1265.91  E(vib)   ...       0.01
freq.    1276.33  E(vib)   ...       0.01
freq.    1290.68  E(vib)   ...       0.01
freq.    1302.45  E(vib)   ...       0.01
freq.    1315.51  E(vib)   ...       0.01
freq.    1324.99  E(vib)   ...       0.01
freq.    1329.01  E(vib)   ...       0.01
freq.    1343.25  E(vib)   ...       0.01
freq.    1355.97  E(vib)   ...       0.01
freq.    1366.51  E(vib)   ...       0.01
freq.    1378.01  E(vib)   ...       0.01
freq.    1382.90  E(vib)   ...       0.01
freq.    1395.93  E(vib)   ...       0.00
freq.    1400.44  E(vib)   ...       0.00
freq.    1411.82  E(vib)   ...       0.00
freq.    1421.65  E(vib)   ...       0.00
freq.    1436.54  E(vib)   ...       0.00
freq.    1437.92  E(vib)   ...       0.00
freq.    1446.19  E(vib)   ...       0.00
freq.    1486.13  E(vib)   ...       0.00
freq.    1495.94  E(vib)   ...       0.00
freq.    1503.54  E(vib)   ...       0.00
freq.    1506.34  E(vib)   ...       0.00
freq.    1508.86  E(vib)   ...       0.00
freq.    1509.49  E(vib)   ...       0.00
freq.    1518.41  E(vib)   ...       0.00
freq.    1519.68  E(vib)   ...       0.00
freq.    1523.38  E(vib)   ...       0.00
freq.    1542.86  E(vib)   ...       0.00
freq.    1553.67  E(vib)   ...       0.00
freq.    1564.21  E(vib)   ...       0.00
freq.    1666.31  E(vib)   ...       0.00
freq.    1671.66  E(vib)   ...       0.00
freq.    1678.22  E(vib)   ...       0.00
freq.    1689.17  E(vib)   ...       0.00
freq.    1707.72  E(vib)   ...       0.00
freq.    3013.16  E(vib)   ...       0.00
freq.    3014.60  E(vib)   ...       0.00
freq.    3018.76  E(vib)   ...       0.00
freq.    3078.16  E(vib)   ...       0.00
freq.    3079.16  E(vib)   ...       0.00
freq.    3091.71  E(vib)   ...       0.00
freq.    3096.99  E(vib)   ...       0.00
freq.    3103.99  E(vib)   ...       0.00
freq.    3132.60  E(vib)   ...       0.00
freq.    3133.32  E(vib)   ...       0.00
freq.    3134.63  E(vib)   ...       0.00
freq.    3140.47  E(vib)   ...       0.00
freq.    3144.59  E(vib)   ...       0.00
freq.    3149.12  E(vib)   ...       0.00
freq.    3173.87  E(vib)   ...       0.00
freq.    3178.80  E(vib)   ...       0.00
freq.    3188.79  E(vib)   ...       0.00
freq.    3191.08  E(vib)   ...       0.00
freq.    3192.28  E(vib)   ...       0.00
freq.    3200.00  E(vib)   ...       0.00
freq.    3205.07  E(vib)   ...       0.00
freq.    3205.66  E(vib)   ...       0.00
freq.    3212.83  E(vib)   ...       0.00
freq.    3222.74  E(vib)   ...       0.00
freq.    3226.44  E(vib)   ...       0.00
freq.    3236.49  E(vib)   ...       0.00
freq.    3446.88  E(vib)   ...       0.00

------------
INNER ENERGY

Rotational constants in cm-1:     0.014088     0.008786     0.007330

                             ****ORCA TERMINATED NORMALLY****
TOTAL RUN TIME: 0 days 10 hours 17 minutes 11 seconds 561 msec
