                         Program Version 5.0.4 -  RELEASE  -
|  1> ! DLPNO-CCSD(T) def2-TZVPP def2-TZVPP/C VeryTightSCF TightPNO
|  2> ! PAL8
|  3>
|  4> %maxcore 4096
|  5>
|  6> * xyz 0 1
|  7>   O   0.01290262687452      0.01079895249635     -0.06437696205851
|  8>   O   5.89993951258570     -0.05291627192759      0.00197265445274
|  9>   O   3.77504984847543      3.44274492259124      0.00719799493550
| 10>   O   6.05116866492879      3.68145007354439      2.15792033506688
| 11>   O   1.13140463224034     -1.83160607983203     -0.06180594842538
| 12>   O   4.13587711670028     -1.13323543522381     -0.64615107342346
| 13>   O   2.00922952263693      2.36750271162999     -0.64456533468831
| 14>   O   7.16984219293427      1.83911912114936      2.15907570440455
| 15>   N   1.90257530207929     -0.10123227380215      1.09328420357514
| 16>   N   4.27671426198522     -0.44120717337120      1.44226104557254
| 17>   N   2.69416647525456      2.16364597847979      1.44107110590813
| 18>   N   4.95364933334470      1.75403707473790      2.21701883093188
| 19>   N   0.94902900963846     -0.68116119657232      0.25900345393137
| 20>   N   4.81045187313910     -0.55001168075809      0.17077699703461
| 21>   N   2.83730702398114      2.69725088674062      0.17281012883272
| 22>   N   6.14382359405330      2.47691515326736      2.17049587630504
| 23>   C   2.93788396086055     -0.94395004521645      1.65067591911504
| 24>   C   1.63163271670317      1.20650568617132      1.64932445617491
| 25>   C   5.02130958668734      0.32301475167345      2.41715368540174
| 26>   C   3.71449340678965      2.47325994222196      2.41656554356086
| 27>   H   2.81094172330689     -1.01968288847606      2.73399856208510
| 28>   H   2.83446449456607     -1.92641287032631      1.20374562170631
| 29>   H   1.50569143135782      1.12899699232259      2.73263867999778
| 30>   H   0.71208507225797      1.56684971490281      1.20172647451617
| 31>   H   6.06761619776429      0.03956209851657      2.39301784849260
| 32>   H   4.59482755637356      0.06465239444633      3.39017965872136
| 33>   H   3.94470597836389      3.53255735792627      2.39189171640787
| 34>   H   3.28850388411676      2.21386910268770      3.38954382146479
| 35> *
| 36>
| 37>                          ****END OF INPUT****

CARTESIAN COORDINATES (ANGSTROEM)
---------------------------------
  O      0.012903    0.010799   -0.064377
  O      5.899940   -0.052916    0.001973
  O      3.775050    3.442745    0.007198
  O      6.051169    3.681450    2.157920
  O      1.131405   -1.831606   -0.061806
  O      4.135877   -1.133235   -0.646151
  O      2.009230    2.367503   -0.644565
  O      7.169842    1.839119    2.159076
  N      1.902575   -0.101232    1.093284
  N      4.276714   -0.441207    1.442261
  N      2.694166    2.163646    1.441071
  N      4.953649    1.754037    2.217019
  N      0.949029   -0.681161    0.259003
  N      4.810452   -0.550012    0.170777
  N      2.837307    2.697251    0.172810
  N      6.143824    2.476915    2.170496
  C      2.937884   -0.943950    1.650676
  C      1.631633    1.206506    1.649324
  C      5.021310    0.323015    2.417154
  C      3.714493    2.473260    2.416566
  H      2.810942   -1.019683    2.733999
  H      2.834464   -1.926413    1.203746
  H      1.505691    1.128997    2.732639
  H      0.712085    1.566850    1.201726
  H      6.067616    0.039562    2.393018
  H      4.594828    0.064652    3.390180
  H      3.944706    3.532557    2.391892
  H      3.288504    2.213869    3.389544

 Total Charge           Charge          ....    0
 Multiplicity           Mult            ....    1
 Number of Electrons    NEL             ....  152
 Basis Dimension        Dim             ....  732

ORBITAL ENERGIES
----------------

  NO   OCC          E(Eh)            E(eV)
   0   2.0000     -20.622030      -561.1540
   1   2.0000     -20.622020      -561.1537
   2   2.0000     -20.621978      -561.1526
   3   2.0000     -20.621970      -561.1523
   4   2.0000     -20.620223      -561.1048
   5   2.0000     -20.620173      -561.1034
   6   2.0000     -20.620171      -561.1034
   7   2.0000     -20.620120      -561.1020
   8   2.0000     -15.913713      -433.0341
   9   2.0000     -15.913676      -433.0331
  10   2.0000     -15.911080      -432.9625
  11   2.0000     -15.911032      -432.9612
  12   2.0000     -15.686117      -426.8409
  13   2.0000     -15.686084      -426.8400
  14   2.0000     -15.680309      -426.6829
  15   2.0000     -15.680265      -426.6817
  16   2.0000     -11.374038      -309.5033
  17   2.0000     -11.374017      -309.5027
  18   2.0000     -11.373997      -309.5022
  19   2.0000     -11.373983      -309.5018
  20   2.0000      -1.665643       -45.3245
  21   2.0000      -1.663538       -45.2672
  22   2.0000      -1.662179       -45.2302
  23   2.0000      -1.660792       -45.1925
  24   2.0000      -1.445659       -39.3384
  25   2.0000      -1.445198       -39.3258
  26   2.0000      -1.442702       -39.2579
  27   2.0000      -1.441641       -39.2290
  28   2.0000      -1.389712       -37.8160
  29   2.0000      -1.341042       -36.4916
  30   2.0000      -1.339301       -36.4442
  31   2.0000      -1.283516       -34.9263
  32   2.0000      -1.079337       -29.3703
  33   2.0000      -1.063997       -28.9528
  34   2.0000      -1.060278       -28.8516
  35   2.0000      -1.059970       -28.8433
  36   2.0000      -0.935175       -25.4474
  37   2.0000      -0.887058       -24.1381
  38   2.0000      -0.875713       -23.8294
  39   2.0000      -0.853300       -23.2195
  40   2.0000      -0.844128       -22.9699
  41   2.0000      -0.832040       -22.6410
  42   2.0000      -0.826470       -22.4894
  43   2.0000      -0.801534       -21.8108
  44   2.0000      -0.799918       -21.7669
  45   2.0000      -0.789600       -21.4861
  46   2.0000      -0.784602       -21.3501
  47   2.0000      -0.771832       -21.0026
  48   2.0000      -0.763355       -20.7719
  49   2.0000      -0.761707       -20.7271
  50   2.0000      -0.760233       -20.6870
  51   2.0000      -0.756173       -20.5765
  52   2.0000      -0.711009       -19.3475
  53   2.0000      -0.700365       -19.0579
  54   2.0000      -0.693256       -18.8644
  55   2.0000      -0.686633       -18.6842
  56   2.0000      -0.677235       -18.4285
  57   2.0000      -0.645171       -17.5560
  58   2.0000      -0.629085       -17.1183
  59   2.0000      -0.621584       -16.9142
  60   2.0000      -0.572887       -15.5891
  61   2.0000      -0.546953       -14.8833
  62   2.0000      -0.542964       -14.7748
  63   2.0000      -0.540834       -14.7168
  64   2.0000      -0.520619       -14.1668
  65   2.0000      -0.519822       -14.1451
  66   2.0000      -0.518020       -14.0960
  67   2.0000      -0.510667       -13.8959
  68   2.0000      -0.496671       -13.5151
  69   2.0000      -0.494133       -13.4460
  70   2.0000      -0.486582       -13.2406
  71   2.0000      -0.486464       -13.2374
  72   2.0000      -0.483144       -13.1470
  73   2.0000      -0.467658       -12.7256
  74   2.0000      -0.464020       -12.6266
  75   2.0000      -0.461730       -12.5643
  76   0.0000       0.072784         1.9806
  77   0.0000       0.079390         2.1603
  78   0.0000       0.093981         2.5573
  79   0.0000       0.094595         2.5741
  80   0.0000       0.099159         2.6983

MULLIKEN ATOMIC CHARGES
-----------------------
   0 O :   -0.403595
   1 O :   -0.396102
   2 O :   -0.396089
   3 O :   -0.403612
   4 O :   -0.403714
   5 O :   -0.396170
   6 O :   -0.396125
   7 O :   -0.403814
   8 N :   -0.112722
   9 N :   -0.104831
  10 N :   -0.104864
  11 N :   -0.112734
  12 N :    0.644202
  13 N :    0.609665
  14 N :    0.609946
  15 N :    0.644394
  16 C :   -0.016800
  17 C :   -0.017971
  18 C :   -0.016925
  19 C :   -0.017931
  20 H :    0.119446
  21 H :    0.179351
  22 H :    0.119620
  23 H :    0.179476
  24 H :    0.179253
  25 H :    0.119483
  26 H :    0.179544
  27 H :    0.119619
Sum of atomic charges:    0.0000000

LOEWDIN ATOMIC CHARGES
----------------------
   0 O :   -0.057001
   1 O :   -0.057283
   2 O :   -0.057290
   3 O :   -0.056976
   4 O :   -0.057006
   5 O :   -0.057312
   6 O :   -0.057346
   7 O :   -0.056987
   8 N :    0.164224
   9 N :    0.167271
  10 N :    0.167317
  11 N :    0.164270
  12 N :   -0.003326
  13 N :   -0.012045
  14 N :   -0.011974
  15 N :   -0.003381
  16 C :   -0.091915
  17 C :   -0.091848
  18 C :   -0.091933
  19 C :   -0.091849
  20 H :    0.023175
  21 H :    0.024909
  22 H :    0.023154
  23 H :    0.024943
  24 H :    0.024923
  25 H :    0.023192
  26 H :    0.024941
  27 H :    0.023154

  Mayer bond orders larger than 0.100000
B(  0-O ,  4-O ) :   0.1038 B(  0-O , 12-N ) :   1.6230 B(  1-O ,  5-O ) :   0.1095
B(  1-O , 13-N ) :   1.6159 B(  2-O ,  6-O ) :   0.1095 B(  2-O , 14-N ) :   1.6160
B(  3-O ,  7-O ) :   0.1038 B(  3-O , 15-N ) :   1.6230 B(  4-O , 12-N ) :   1.6228
B(  5-O , 13-N ) :   1.6159 B(  6-O , 14-N ) :   1.6161 B(  7-O , 15-N ) :   1.6227
B(  8-N , 12-N ) :   1.0136 B(  8-N , 16-C ) :   0.9108 B(  8-N , 17-C ) :   0.9108
B(  9-N , 13-N ) :   1.0302 B(  9-N , 16-C ) :   0.8971 B(  9-N , 18-C ) :   0.8971
B( 10-N , 14-N ) :   1.0303 B( 10-N , 17-C ) :   0.8973 B( 10-N , 19-C ) :   0.8973
B( 11-N , 15-N ) :   1.0137 B( 11-N , 18-C ) :   0.9106 B( 11-N , 19-C ) :   0.9108
B( 16-C , 20-H ) :   1.0278 B( 16-C , 21-H ) :   0.9675 B( 17-C , 22-H ) :   1.0280
B( 17-C , 23-H ) :   0.9673 B( 18-C , 24-H ) :   0.9676 B( 18-C , 25-H ) :   1.0278
B( 19-C , 26-H ) :   0.9672 B( 19-C , 27-H ) :   1.0279

E(0)                                       ...  -1190.489298261
E(0)                                       ...  -1190.489298261
E(CORR)(strong-pairs)                      ...     -4.164612624
E(CORR)(weak-pairs)                        ...     -0.008302406
E(CORR)(corrected)                         ...     -4.172915030
E(TOT)                                     ...  -1194.662213291
E(CCSD(T))                                 ...  -1194.861636729
FINAL SINGLE POINT ENERGY     -1194.861636728882

DIPOLE MOMENT
-------------
                                X             Y             Z
Electronic contribution:      1.86799       1.14520      -6.96783
Nuclear contribution   :     -2.90379      -1.78182      10.83390
                        -----------------------------------------
Total Dipole Moment    :     -1.03580      -0.63662       3.86607
                        -----------------------------------------
Magnitude (a.u.)       :      4.05273
Magnitude (Debye)      :     10.30123

Rotational constants in cm-1:     0.019827     0.010051     0.008253
Rotational constants in MHz :   594.389113   301.324963   247.415351

                             ****ORCA TERMINATED NORMALLY****
TOTAL RUN TIME: 0 days 2 hours 35 minutes 44 seconds 362 msec
