                         Program Version 5.0.4 -  RELEASE  -
|  1> ! DLPNO-CCSD(T) def2-TZVPP def2-TZVPP/C VeryTightSCF TightPNO
|  2> ! PAL8 LED
|  3>
|  4> %maxcore 4096
|  5>
|  6> * xyz -1 1
|  7> O(1)  0.02517106858488      0.01740473808571     -0.08770057758463
|  8> O(1)  5.91569401763888     -0.08265136763155      0.00412110802765
|  9> O(1)  3.75661780742735      3.47013651066651      0.01048962001733
| 10> O(1)  6.05277457277845      3.68217585699576      2.13279771334734
| 11> O(1)  1.14280167909352     -1.82451678336536     -0.08381791175592
| 12> O(1)  4.15240704058902     -1.16239569812223     -0.64274141321923
| 13> O(1)  1.99192704758685      2.39564536874247     -0.64116999468775
| 14> O(1)  7.17113686081028      1.84068480107662      2.13237394375825
| 15> N(1)  1.90650851510687     -0.09873292463982      1.07365632208989
| 16> N(1)  4.27452971574308     -0.43098688100474      1.43135820971052
| 17> N(1)  2.70201728053343      2.15717701448408      1.43039176359845
| 18> N(1)  4.96000648770590      1.75792048486392      2.19798737483191
| 19> N(1)  0.96962432697427     -0.66886579321416      0.24726502377941
| 20> N(1)  4.81575352604688     -0.56610443806571      0.18160127463149
| 21> N(1)  2.82606549597916      2.70919765891368      0.18408023613186
| 22> N(1)  6.13269109746681      2.47036664201962      2.14743768911344
| 23> C(1)  2.93760701292504     -0.94027506139279      1.66068807972526
| 24> C(1)  1.63414495818828      1.20492814221702      1.65879756917437
| 25> C(1)  5.01431417626389      0.32208079277712      2.42390584997423
| 26> C(1)  3.71015827349461      2.46692648210657      2.42397661946954
| 27> H(1)  2.81399832446300     -0.96173117937350      2.74648484552644
| 28> H(1)  2.83752177113737     -1.93172983549853      1.23664738994304
| 29> H(1)  1.55648091207962      1.10592789677421      2.74453889123212
| 30> H(1)  0.70872385045164      1.57241719563484      1.23289887156222
| 31> H(1)  6.05567852962077      0.02485165328368      2.41827058154906
| 32> H(1)  4.54278493397793      0.08771679658032      3.38171336259219
| 33> H(1)  3.92556838526756      3.52823684930958      2.41904298917206
| 34> H(1)  3.28457929403831      2.15551085463200      3.38135514207331
| 35> O(2)  2.01354596541135      1.23792583825834      4.82606971468518
| 36> O(2)  2.08848967654740      0.01713556300662      6.60422678632421
| 37> O(2)  3.13709169912260     -0.61427694828712      4.82664200889407
| 38> N(2)  2.40784069694496      0.21043977016682      5.43800991631269
| 39> *
| 40>
| 41>                          ****END OF INPUT****

CARTESIAN COORDINATES (ANGSTROEM)
---------------------------------
  O      0.025171    0.017405   -0.087701
  O      5.915694   -0.082651    0.004121
  O      3.756618    3.470137    0.010490
  O      6.052775    3.682176    2.132798
  O      1.142802   -1.824517   -0.083818
  O      4.152407   -1.162396   -0.642741
  O      1.991927    2.395645   -0.641170
  O      7.171137    1.840685    2.132374
  N      1.906509   -0.098733    1.073656
  N      4.274530   -0.430987    1.431358
  N      2.702017    2.157177    1.430392
  N      4.960006    1.757920    2.197987
  N      0.969624   -0.668866    0.247265
  N      4.815754   -0.566104    0.181601
  N      2.826065    2.709198    0.184080
  N      6.132691    2.470367    2.147438
  C      2.937607   -0.940275    1.660688
  C      1.634145    1.204928    1.658798
  C      5.014314    0.322081    2.423906
  C      3.710158    2.466926    2.423977
  H      2.813998   -0.961731    2.746485
  H      2.837522   -1.931730    1.236647
  H      1.556481    1.105928    2.744539
  H      0.708724    1.572417    1.232899
  H      6.055679    0.024852    2.418271
  H      4.542785    0.087717    3.381713
  H      3.925568    3.528237    2.419043
  H      3.284579    2.155511    3.381355
  O      2.013546    1.237926    4.826070
  O      2.088490    0.017136    6.604227
  O      3.137092   -0.614277    4.826642
  N      2.407841    0.210440    5.438010

 Total Charge           Charge          ....   -1
 Multiplicity           Mult            ....    1
 Number of Electrons    NEL             ....  184
 Basis Dimension        Dim             ....  856

ORBITAL ENERGIES
----------------

  NO   OCC          E(Eh)            E(eV)
   0   2.0000     -20.516540      -558.2834
   1   2.0000     -20.516519      -558.2829
   2   2.0000     -20.516487      -558.2820
   3   2.0000     -20.516471      -558.2816
   4   2.0000     -20.512101      -558.1627
   5   2.0000     -20.512053      -558.1613
   6   2.0000     -20.512030      -558.1607
   7   2.0000     -20.511978      -558.1593
   8   2.0000     -20.443745      -556.3026
   9   2.0000     -20.439191      -556.1787
  10   2.0000     -20.439146      -556.1774
  11   2.0000     -15.806593      -430.1193
  12   2.0000     -15.806531      -430.1176
  13   2.0000     -15.805325      -430.0848
  14   2.0000     -15.805294      -430.0839
  15   2.0000     -15.745992      -428.4702
  16   2.0000     -15.574491      -423.8035
  17   2.0000     -15.574464      -423.8027
  18   2.0000     -15.568776      -423.6479
  19   2.0000     -15.568707      -423.6461
  20   2.0000     -11.246620      -306.0361
  21   2.0000     -11.246579      -306.0350
  22   2.0000     -11.246560      -306.0344
  23   2.0000     -11.246486      -306.0325
  24   2.0000      -1.557778       -42.3893
  25   2.0000      -1.556206       -42.3465
  26   2.0000      -1.552504       -42.2458
  27   2.0000      -1.551604       -42.2213
  28   2.0000      -1.493274       -40.6340
  29   2.0000      -1.335689       -36.3459
  30   2.0000      -1.335607       -36.3437
  31   2.0000      -1.330020       -36.1917
  32   2.0000      -1.329410       -36.1751
  33   2.0000      -1.276053       -34.7232
  34   2.0000      -1.243043       -33.8249
  35   2.0000      -1.230566       -33.4854
  36   2.0000      -1.227502       -33.4020
  37   2.0000      -1.227052       -33.3898
  38   2.0000      -1.177269       -32.0351
  39   2.0000      -0.958770       -26.0894
  40   2.0000      -0.955950       -26.0127
  41   2.0000      -0.950819       -25.8731
  42   2.0000      -0.948864       -25.8199
  43   2.0000      -0.824681       -22.4407
  44   2.0000      -0.770233       -20.9591
  45   2.0000      -0.760504       -20.6944
  46   2.0000      -0.747682       -20.3455
  47   2.0000      -0.733260       -19.9530
  48   2.0000      -0.725190       -19.7334
  49   2.0000      -0.724225       -19.7072
  50   2.0000      -0.715043       -19.4573
  51   2.0000      -0.693687       -18.8762
  52   2.0000      -0.687761       -18.7149
  53   2.0000      -0.681890       -18.5552
  54   2.0000      -0.675807       -18.3896
  55   2.0000      -0.664469       -18.0811
  56   2.0000      -0.656827       -17.8732
  57   2.0000      -0.655200       -17.8289
  58   2.0000      -0.648761       -17.6537
  59   2.0000      -0.646757       -17.5991
  60   2.0000      -0.618224       -16.8227
  61   2.0000      -0.608993       -16.5716
  62   2.0000      -0.600011       -16.3271
  63   2.0000      -0.589240       -16.0340
  64   2.0000      -0.580279       -15.7902
  65   2.0000      -0.567906       -15.4535
  66   2.0000      -0.564304       -15.3555
  67   2.0000      -0.551017       -14.9939
  68   2.0000      -0.520873       -14.1737
  69   2.0000      -0.509706       -13.8698
  70   2.0000      -0.503060       -13.6890
  71   2.0000      -0.464779       -12.6473
  72   2.0000      -0.443258       -12.0617
  73   2.0000      -0.439133       -11.9494
  74   2.0000      -0.437894       -11.9157
  75   2.0000      -0.414696       -11.2845
  76   2.0000      -0.413941       -11.2639
  77   2.0000      -0.409656       -11.1473
  78   2.0000      -0.402677       -10.9574
  79   2.0000      -0.402318       -10.9476
  80   2.0000      -0.390626       -10.6295
  81   2.0000      -0.384199       -10.4546
  82   2.0000      -0.382971       -10.4212
  83   2.0000      -0.380015       -10.3407
  84   2.0000      -0.377663       -10.2767
  85   2.0000      -0.376686       -10.2501
  86   2.0000      -0.352792        -9.6000
  87   2.0000      -0.347728        -9.4622
  88   2.0000      -0.346602        -9.4315
  89   2.0000      -0.335840        -9.1387
  90   2.0000      -0.323501        -8.8029
  91   2.0000      -0.316565        -8.6142
  92   0.0000       0.182775         4.9736
  93   0.0000       0.192591         5.2407
  94   0.0000       0.197079         5.3628
  95   0.0000       0.198518         5.4019
  96   0.0000       0.254072         6.9136

MULLIKEN ATOMIC CHARGES
-----------------------
   0 O :   -0.433680
   1 O :   -0.422159
   2 O :   -0.422186
   3 O :   -0.433732
   4 O :   -0.433783
   5 O :   -0.422284
   6 O :   -0.422236
   7 O :   -0.433948
   8 N :   -0.110787
   9 N :   -0.105517
  10 N :   -0.105619
  11 N :   -0.110717
  12 N :    0.637508
  13 N :    0.591841
  14 N :    0.592060
  15 N :    0.637674
  16 C :   -0.010087
  17 C :   -0.010967
  18 C :   -0.010052
  19 C :   -0.011011
  20 H :    0.169817
  21 H :    0.160364
  22 H :    0.169801
  23 H :    0.160558
  24 H :    0.160355
  25 H :    0.169832
  26 H :    0.160575
  27 H :    0.170126
  28 O :   -0.572316
  29 O :   -0.484591
  30 O :   -0.572485
  31 N :    0.747643
Sum of atomic charges:   -1.0000000

LOEWDIN ATOMIC CHARGES
----------------------
   0 O :   -0.088710
   1 O :   -0.084691
   2 O :   -0.084754
   3 O :   -0.088701
   4 O :   -0.088701
   5 O :   -0.084783
   6 O :   -0.084849
   7 O :   -0.088736
   8 N :    0.169040
   9 N :    0.172359
  10 N :    0.172416
  11 N :    0.169121
  12 N :   -0.002812
  13 N :   -0.011666
  14 N :   -0.011589
  15 N :   -0.002861
  16 C :   -0.071392
  17 C :   -0.071305
  18 C :   -0.071418
  19 C :   -0.071218
  20 H :    0.021366
  21 H :    0.015915
  22 H :    0.021441
  23 H :    0.015954
  24 H :    0.015910
  25 H :    0.021444
  26 H :    0.015940
  27 H :    0.021237
  28 O :   -0.250080
  29 O :   -0.174854
  30 O :   -0.250260
  31 N :   -0.148763

  Mayer bond orders larger than 0.100000
B(  0-O , 12-N ) :   1.6038 B(  1-O , 13-N ) :   1.6071 B(  2-O , 14-N ) :   1.6072
B(  3-O , 15-N ) :   1.6038 B(  4-O , 12-N ) :   1.6036 B(  5-O , 13-N ) :   1.6070
B(  6-O , 14-N ) :   1.6072 B(  7-O , 15-N ) :   1.6035 B(  8-N , 12-N ) :   1.0536
B(  8-N , 16-C ) :   0.9013 B(  8-N , 17-C ) :   0.9012 B(  9-N , 13-N ) :   1.0530
B(  9-N , 16-C ) :   0.8876 B(  9-N , 18-C ) :   0.8876 B( 10-N , 14-N ) :   1.0532
B( 10-N , 17-C ) :   0.8878 B( 10-N , 19-C ) :   0.8876 B( 11-N , 15-N ) :   1.0538
B( 11-N , 18-C ) :   0.9012 B( 11-N , 19-C ) :   0.9012 B( 16-C , 20-H ) :   0.9940
B( 16-C , 21-H ) :   0.9764 B( 17-C , 22-H ) :   0.9942 B( 17-C , 23-H ) :   0.9762
B( 18-C , 24-H ) :   0.9765 B( 18-C , 25-H ) :   0.9941 B( 19-C , 26-H ) :   0.9762
B( 19-C , 27-H ) :   0.9939 B( 28-O , 31-N ) :   1.3798 B( 29-O , 31-N ) :   1.6161
B( 30-O , 31-N ) :   1.3797

E(0)                                       ...  -1469.598613044
E(0)                                       ...  -1469.598613044
E(CORR)(strong-pairs)                      ...     -5.075593929
E(CORR)(weak-pairs)                        ...     -0.010913904
E(CORR)(corrected)                         ...     -5.086507832
E(TOT)                                     ...  -1474.685120876
E(CCSD(T))                                 ...  -1474.926568486
FINAL SINGLE POINT ENERGY     -1474.926568486120

DIPOLE MOMENT
-------------
                                X             Y             Z
Electronic contribution:      1.63403       1.00163      -6.09878
Nuclear contribution   :     -1.40562      -0.87188       5.27014
                        -----------------------------------------
Total Dipole Moment    :      0.22840       0.12975      -0.82864
                        -----------------------------------------
Magnitude (a.u.)       :      0.86928
Magnitude (Debye)      :      2.20954

Rotational constants in cm-1:     0.008225     0.008097     0.005972
Rotational constants in MHz :   246.589897   242.755360   179.040130

                             ****ORCA TERMINATED NORMALLY****
TOTAL RUN TIME: 0 days 3 hours 53 minutes 10 seconds 110 msec
