                         Program Version 5.0.4 -  RELEASE  -
|  1> # NO3-
|  2> ! DLPNO-CCSD(T) def2-TZVPP def2-TZVPP/C VeryTightSCF TightPNO
|  3> ! PAL8
|  4>
|  5> %maxcore 4096
|  6>
|  7> * xyz -1 1
|  8>   N    0.01187120258112     -0.19230258824964     -0.44610744806363
|  9>   O   -0.25302823512275     -0.73564429289764      0.64718712534696
| 10>   O    0.38627776652074     -0.88715401681347     -1.41445353489025
| 11>   O   -0.09761906167912      1.04585790206075     -0.57106614249308
| 12> *
| 13>
| 14>                          ****END OF INPUT****

CARTESIAN COORDINATES (ANGSTROEM)
---------------------------------
  N      0.011871   -0.192303   -0.446107
  O     -0.253028   -0.735644    0.647187
  O      0.386278   -0.887154   -1.414454
  O     -0.097619    1.045858   -0.571066

 Total Charge           Charge          ....   -1
 Multiplicity           Mult            ....    1
 Number of Electrons    NEL             ....   32
 Basis Dimension        Dim             ....  124

ORBITAL ENERGIES
----------------

  NO   OCC          E(Eh)            E(eV)
   0   2.0000     -20.345844      -553.6386
   1   2.0000     -20.345839      -553.6384
   2   2.0000     -20.345773      -553.6366
   3   2.0000     -15.652493      -425.9260
   4   2.0000      -1.395708       -37.9792
   5   2.0000      -1.138140       -30.9704
   6   2.0000      -1.138127       -30.9700
   7   2.0000      -0.632562       -17.2129
   8   2.0000      -0.510406       -13.8889
   9   2.0000      -0.507307       -13.8045
  10   2.0000      -0.507306       -13.8045
  11   2.0000      -0.288784        -7.8582
  12   2.0000      -0.288781        -7.8581
  13   2.0000      -0.236427        -6.4335
  14   2.0000      -0.236423        -6.4334
  15   2.0000      -0.221664        -6.0318
  16   0.0000       0.358336         9.7508
  17   0.0000       0.489367        13.3163
  18   0.0000       0.610249        16.6057
  19   0.0000       0.610251        16.6058
  20   0.0000       0.680253        18.5106

MULLIKEN ATOMIC CHARGES
-----------------------
   0 N :    0.706077
   1 O :   -0.568695
   2 O :   -0.568698
   3 O :   -0.568684
Sum of atomic charges:   -1.0000000

LOEWDIN ATOMIC CHARGES
----------------------
   0 N :   -0.159673
   1 O :   -0.280116
   2 O :   -0.280122
   3 O :   -0.280090

  Mayer bond orders larger than 0.100000
B(  0-N ,  1-O ) :   1.5095 B(  0-N ,  2-O ) :   1.5095 B(  0-N ,  3-O ) :   1.5095

E(0)                                       ...   -279.044321135
E(0)                                       ...   -279.044321135
E(CORR)(strong-pairs)                      ...     -0.904609712
E(CORR)(weak-pairs)                        ...     -0.000569375
E(CORR)(corrected)                         ...     -0.905179087
E(TOT)                                     ...   -279.949500222
E(CCSD(T))                                 ...   -279.990172942
FINAL SINGLE POINT ENERGY      -279.990172941722

DIPOLE MOMENT
-------------
                                X             Y             Z
Electronic contribution:     -0.00001       0.00006       0.00001
Nuclear contribution   :      0.00000      -0.00000      -0.00000
                        -----------------------------------------
Total Dipole Moment    :     -0.00001       0.00006       0.00001
                        -----------------------------------------
Magnitude (a.u.)       :      0.00006
Magnitude (Debye)      :      0.00016

Rotational constants in cm-1:     0.450094     0.450088     0.225046
Rotational constants in MHz : 13493.482526 13493.311908  6746.698608

                             ****ORCA TERMINATED NORMALLY****
TOTAL RUN TIME: 0 days 0 hours 1 minutes 24 seconds 607 msec
