                         Program Version 5.0.4 -  RELEASE  -
|  1> ! DLPNO-CCSD(T) def2-TZVP def2-TZVP/C VeryTightSCF
|  2> %maxcore 3400
|  3>
|  4> %pal nprocs 8
|  5> end
|  6>
|  7> *xyz 1 1
|  8> O             2.878535         1.957989         1.204735
|  9> N            -1.950251         2.466310        -0.649147
| 10> N             1.840563         0.494638        -0.109338
| 11> C             0.727530         1.485452        -0.303643
| 12> C             0.004297         1.278296        -1.626458
| 13> C            -0.257867         1.430319         0.860063
| 14> C            -1.044451         2.395337        -1.764346
| 15> C            -1.318392         2.522809         0.644211
| 16> C            -3.316968         2.022116        -0.809654
| 17> C            -3.557656         0.515264        -0.993606
| 18> C             1.759612        -0.810937        -0.732276
| 19> C             2.856853         0.770019         0.647167
| 20> C            -3.183758        -0.348683         0.187814
| 21> C             3.973640        -0.204431         0.898869
| 22> C             1.099267        -1.835074        -0.074172
| 23> C             2.340109        -1.000121        -1.978309
| 24> C             5.079589         0.328398         1.804814
| 25> C            -2.457363        -1.522853         0.007579
| 26> C            -3.580704        -0.012903         1.483049
| 27> C             1.026767        -3.083050        -0.681017
| 28> C             2.261267        -2.249843        -2.575803
| 29> C             1.605791        -3.290279        -1.926158
| 30> C            -2.132540        -2.337353         1.087406
| 31> C            -3.241383        -0.810656         2.566189
| 32> C            -2.512240        -1.979402         2.373002
| 33> H             1.211837         2.464592        -0.320730
| 34> H            -0.485594         0.301764        -1.637150
| 35> H             0.702688         1.322168        -2.466521
| 36> H             0.258538         1.603684         1.808297
| 37> H            -0.734426         0.447931         0.895135
| 38> H            -0.509662         3.352139        -1.872614
| 39> H            -1.614300         2.248318        -2.683425
| 40> H            -2.077760         2.450075         1.422427
| 41> H            -0.823242         3.499337         0.767529
| 42> H            -3.885841         2.385298         0.049741
| 43> H            -3.738843         2.534083        -1.681415
| 44> H            -3.019247         0.166837        -1.880658
| 45> H            -4.622685         0.376537        -1.212897
| 46> H             4.371924        -0.503438        -0.073647
| 47> H             3.522570        -1.107402         1.318658
| 48> H             0.637876        -1.658668         0.890192
| 49> H             2.843779        -0.178007        -2.474865
| 50> H             5.842602        -0.439290         1.929994
| 51> H             4.711754         0.571656         2.806334
| 52> H             5.580221         1.201710         1.375560
| 53> H            -2.152861        -1.812506        -0.994143
| 54> H            -4.172651         0.880358         1.651690
| 55> H             0.515600        -3.895213        -0.178179
| 56> H             2.709518        -2.410238        -3.549161
| 57> H             1.545630        -4.265888        -2.394231
| 58> H            -1.592448        -3.263274         0.921387
| 59> H            -3.562089        -0.529809         3.563404
| 60> H            -2.263630        -2.614375         3.216012
| 61> H             3.680222         2.073800         1.734297
| 62> *
| 63>
| 64>
| 65>                          ****END OF INPUT****

CARTESIAN COORDINATES (ANGSTROEM)
---------------------------------
  O      2.878535    1.957989    1.204735
  N     -1.950251    2.466310   -0.649147
  N      1.840563    0.494638   -0.109338
  C      0.727530    1.485452   -0.303643
  C      0.004297    1.278296   -1.626458
  C     -0.257867    1.430319    0.860063
  C     -1.044451    2.395337   -1.764346
  C     -1.318392    2.522809    0.644211
  C     -3.316968    2.022116   -0.809654
  C     -3.557656    0.515264   -0.993606
  C      1.759612   -0.810937   -0.732276
  C      2.856853    0.770019    0.647167
  C     -3.183758   -0.348683    0.187814
  C      3.973640   -0.204431    0.898869
  C      1.099267   -1.835074   -0.074172
  C      2.340109   -1.000121   -1.978309
  C      5.079589    0.328398    1.804814
  C     -2.457363   -1.522853    0.007579
  C     -3.580704   -0.012903    1.483049
  C      1.026767   -3.083050   -0.681017
  C      2.261267   -2.249843   -2.575803
  C      1.605791   -3.290279   -1.926158
  C     -2.132540   -2.337353    1.087406
  C     -3.241383   -0.810656    2.566189
  C     -2.512240   -1.979402    2.373002
  H      1.211837    2.464592   -0.320730
  H     -0.485594    0.301764   -1.637150
  H      0.702688    1.322168   -2.466521
  H      0.258538    1.603684    1.808297
  H     -0.734426    0.447931    0.895135
  H     -0.509662    3.352139   -1.872614
  H     -1.614300    2.248318   -2.683425
  H     -2.077760    2.450075    1.422427
  H     -0.823242    3.499337    0.767529
  H     -3.885841    2.385298    0.049741
  H     -3.738843    2.534083   -1.681415
  H     -3.019247    0.166837   -1.880658
  H     -4.622685    0.376537   -1.212897
  H      4.371924   -0.503438   -0.073647
  H      3.522570   -1.107402    1.318658
  H      0.637876   -1.658668    0.890192
  H      2.843779   -0.178007   -2.474865
  H      5.842602   -0.439290    1.929994
  H      4.711754    0.571656    2.806334
  H      5.580221    1.201710    1.375560
  H     -2.152861   -1.812506   -0.994143
  H     -4.172651    0.880358    1.651690
  H      0.515600   -3.895213   -0.178179
  H      2.709518   -2.410238   -3.549161
  H      1.545630   -4.265888   -2.394231
  H     -1.592448   -3.263274    0.921387
  H     -3.562089   -0.529809    3.563404
  H     -2.263630   -2.614375    3.216012
  H      3.680222    2.073800    1.734297

 Total Charge           Charge          ....    1
 Multiplicity           Mult            ....    1
 Number of Electrons    NEL             ....  182
 Basis Dimension        Dim             ....  949

ORBITAL ENERGIES
----------------

  NO   OCC          E(Eh)            E(eV)
   0   2.0000     -20.788792      -565.6918
   1   2.0000     -15.779498      -429.3820
   2   2.0000     -15.624776      -425.1718
   3   2.0000     -11.552784      -314.3672
   4   2.0000     -11.409522      -310.4689
   5   2.0000     -11.404316      -310.3272
   6   2.0000     -11.400731      -310.2297
   7   2.0000     -11.374119      -309.5055
   8   2.0000     -11.366368      -309.2946
   9   2.0000     -11.364204      -309.2357
  10   2.0000     -11.357943      -309.0653
  11   2.0000     -11.357345      -309.0491
  12   2.0000     -11.355523      -308.9995
  13   2.0000     -11.348789      -308.8162
  14   2.0000     -11.346071      -308.7423
  15   2.0000     -11.337559      -308.5107
  16   2.0000     -11.333319      -308.3953
  17   2.0000     -11.327616      -308.2401
  18   2.0000     -11.323280      -308.1221
  19   2.0000     -11.319531      -308.0201
  20   2.0000     -11.317090      -307.9537
  21   2.0000     -11.314445      -307.8817
  22   2.0000     -11.314245      -307.8763
  23   2.0000     -11.312150      -307.8192
  24   2.0000     -11.307939      -307.7047
  25   2.0000      -1.634367       -44.4734
  26   2.0000      -1.454759       -39.5860
  27   2.0000      -1.331027       -36.2191
  28   2.0000      -1.282977       -34.9116
  29   2.0000      -1.242966       -33.8228
  30   2.0000      -1.232882       -33.5484
  31   2.0000      -1.192318       -32.4446
  32   2.0000      -1.155960       -31.4553
  33   2.0000      -1.149229       -31.2721
  34   2.0000      -1.142288       -31.0832
  35   2.0000      -1.125898       -30.6372
  36   2.0000      -1.100261       -29.9396
  37   2.0000      -1.080586       -29.4042
  38   2.0000      -1.056040       -28.7363
  39   2.0000      -1.019594       -27.7446
  40   2.0000      -0.993118       -27.0241
  41   2.0000      -0.972909       -26.4742
  42   2.0000      -0.960092       -26.1254
  43   2.0000      -0.944909       -25.7123
  44   2.0000      -0.937108       -25.5000
  45   2.0000      -0.912538       -24.8314
  46   2.0000      -0.891332       -24.2544
  47   2.0000      -0.881897       -23.9976
  48   2.0000      -0.869871       -23.6704
  49   2.0000      -0.856398       -23.3038
  50   2.0000      -0.830370       -22.5955
  51   2.0000      -0.821534       -22.3551
  52   2.0000      -0.790893       -21.5213
  53   2.0000      -0.782964       -21.3055
  54   2.0000      -0.770358       -20.9625
  55   2.0000      -0.754526       -20.5317
  56   2.0000      -0.752690       -20.4817
  57   2.0000      -0.740866       -20.1600
  58   2.0000      -0.735053       -20.0018
  59   2.0000      -0.726497       -19.7690
  60   2.0000      -0.726121       -19.7588
  61   2.0000      -0.720522       -19.6064
  62   2.0000      -0.717615       -19.5273
  63   2.0000      -0.710719       -19.3396
  64   2.0000      -0.699908       -19.0455
  65   2.0000      -0.696695       -18.9580
  66   2.0000      -0.677819       -18.4444
  67   2.0000      -0.672979       -18.3127
  68   2.0000      -0.669517       -18.2185
  69   2.0000      -0.667978       -18.1766
  70   2.0000      -0.663058       -18.0427
  71   2.0000      -0.657372       -17.8880
  72   2.0000      -0.645476       -17.5643
  73   2.0000      -0.640989       -17.4422
  74   2.0000      -0.635783       -17.3005
  75   2.0000      -0.631248       -17.1771
  76   2.0000      -0.618874       -16.8404
  77   2.0000      -0.615395       -16.7457
  78   2.0000      -0.606428       -16.5017
  79   2.0000      -0.595778       -16.2119
  80   2.0000      -0.586711       -15.9652
  81   2.0000      -0.577604       -15.7174
  82   2.0000      -0.572247       -15.5716
  83   2.0000      -0.562409       -15.3039
  84   2.0000      -0.558679       -15.2024
  85   2.0000      -0.550629       -14.9834
  86   2.0000      -0.469931       -12.7875
  87   2.0000      -0.467305       -12.7160
  88   2.0000      -0.425985       -11.5916
  89   2.0000      -0.422994       -11.5103
  90   2.0000      -0.409060       -11.1311
  91   0.0000      -0.020079        -0.5464
  92   0.0000      -0.018268        -0.4971
  93   0.0000      -0.005314        -0.1446
  94   0.0000       0.002040         0.0555
  95   0.0000       0.025239         0.6868

MULLIKEN ATOMIC CHARGES
-----------------------
   0 O :   -0.432653
   1 N :   -0.205562
   2 N :   -0.042659
   3 C :    0.056801
   4 C :   -0.173819
   5 C :   -0.251213
   6 C :   -0.131351
   7 C :   -0.121182
   8 C :   -0.164940
   9 C :   -0.190779
  10 C :    0.226719
  11 C :    0.381040
  12 C :    0.202128
  13 C :   -0.137761
  14 C :   -0.310524
  15 C :   -0.329405
  16 C :   -0.431738
  17 C :   -0.250765
  18 C :   -0.246227
  19 C :   -0.069154
  20 C :   -0.052211
  21 C :   -0.119650
  22 C :   -0.115172
  23 C :   -0.100578
  24 C :   -0.176071
  25 H :    0.113899
  26 H :    0.107661
  27 H :    0.113971
  28 H :    0.117032
  29 H :    0.123512
  30 H :    0.111182
  31 H :    0.133831
  32 H :    0.118687
  33 H :    0.108020
  34 H :    0.118132
  35 H :    0.128608
  36 H :    0.098326
  37 H :    0.127069
  38 H :    0.167234
  39 H :    0.168290
  40 H :    0.167346
  41 H :    0.157754
  42 H :    0.170792
  43 H :    0.148188
  44 H :    0.148488
  45 H :    0.131958
  46 H :    0.136936
  47 H :    0.151879
  48 H :    0.157206
  49 H :    0.158550
  50 H :    0.125705
  51 H :    0.141225
  52 H :    0.137770
  53 H :    0.397476
Sum of atomic charges:    1.0000000

LOEWDIN ATOMIC CHARGES
----------------------
   0 O :    0.161648
   1 N :    0.086129
   2 N :    0.308930
   3 C :   -0.194774
   4 C :   -0.211459
   5 C :   -0.213908
   6 C :   -0.244398
   7 C :   -0.246197
   8 C :   -0.255443
   9 C :   -0.197958
  10 C :   -0.162465
  11 C :   -0.191776
  12 C :   -0.143887
  13 C :   -0.209608
  14 C :   -0.097324
  15 C :   -0.102413
  16 C :   -0.274396
  17 C :   -0.126926
  18 C :   -0.109699
  19 C :   -0.111368
  20 C :   -0.109163
  21 C :   -0.101510
  22 C :   -0.143521
  23 C :   -0.127384
  24 C :   -0.144606
  25 H :    0.156157
  26 H :    0.138276
  27 H :    0.133265
  28 H :    0.130173
  29 H :    0.142457
  30 H :    0.126888
  31 H :    0.135527
  32 H :    0.133907
  33 H :    0.125495
  34 H :    0.128852
  35 H :    0.130539
  36 H :    0.132084
  37 H :    0.144999
  38 H :    0.165817
  39 H :    0.166774
  40 H :    0.153504
  41 H :    0.150702
  42 H :    0.137970
  43 H :    0.121951
  44 H :    0.121971
  45 H :    0.141225
  46 H :    0.144330
  47 H :    0.148972
  48 H :    0.151673
  49 H :    0.152080
  50 H :    0.136994
  51 H :    0.144464
  52 H :    0.142049
  53 H :    0.224383

  Mayer bond orders larger than 0.100000
B(  0-O , 11-C ) :   1.2459 B(  0-O , 53-H ) :   0.8256 B(  1-N ,  6-C ) :   0.9468
B(  1-N ,  7-C ) :   0.9595 B(  1-N ,  8-C ) :   0.9536 B(  2-N ,  3-C ) :   0.7856
B(  2-N , 10-C ) :   0.7304 B(  2-N , 11-C ) :   1.6105 B(  3-C ,  4-C ) :   0.9786
B(  3-C ,  5-C ) :   0.9905 B(  3-C , 25-H ) :   0.9678 B(  4-C ,  6-C ) :   0.9678
B(  4-C , 26-H ) :   0.9710 B(  4-C , 27-H ) :   0.9821 B(  5-C ,  7-C ) :   0.9944
B(  5-C , 28-H ) :   0.9869 B(  5-C , 29-H ) :   0.9781 B(  6-C , 30-H ) :   0.9937
B(  6-C , 31-H ) :   0.9948 B(  7-C , 32-H ) :   0.9890 B(  7-C , 33-H ) :   0.9885
B(  8-C ,  9-C ) :   0.9447 B(  8-C , 34-H ) :   1.0032 B(  8-C , 35-H ) :   1.0043
B(  9-C , 12-C ) :   0.9083 B(  9-C , 36-H ) :   1.0086 B(  9-C , 37-H ) :   0.9708
B( 10-C , 14-C ) :   1.4743 B( 10-C , 15-C ) :   1.4320 B( 11-C , 13-C ) :   1.0219
B( 12-C , 17-C ) :   1.4102 B( 12-C , 18-C ) :   1.3642 B( 13-C , 16-C ) :   0.9390
B( 13-C , 38-H ) :   0.9415 B( 13-C , 39-H ) :   0.9435 B( 14-C , 19-C ) :   1.4546
B( 14-C , 40-H ) :   0.9617 B( 15-C , 20-C ) :   1.4767 B( 15-C , 41-H ) :   0.9820
B( 16-C , 42-H ) :   0.9709 B( 16-C , 43-H ) :   0.9806 B( 16-C , 44-H ) :   0.9810
B( 17-C , 22-C ) :   1.4055 B( 17-C , 45-H ) :   0.9810 B( 18-C , 23-C ) :   1.4754
B( 18-C , 46-H ) :   0.9862 B( 19-C , 21-C ) :   1.4315 B( 19-C , 47-H ) :   0.9754
B( 20-C , 21-C ) :   1.4083 B( 20-C , 48-H ) :   0.9713 B( 21-C , 49-H ) :   0.9710
B( 22-C , 24-C ) :   1.4427 B( 22-C , 50-H ) :   0.9919 B( 23-C , 24-C ) :   1.4097
B( 23-C , 51-H ) :   0.9784 B( 24-C , 52-H ) :   0.9804

E(0)                                       ...  -1033.902638543
E(0)                                       ...  -1033.902638543
E(CORR)(strong-pairs)                      ...     -4.248520433
E(CORR)(weak-pairs)                        ...     -0.037281774
E(CORR)(corrected)                         ...     -4.285802206
E(TOT)                                     ...  -1038.188440750
E(CCSD(T))                                 ...  -1038.381829057
FINAL SINGLE POINT ENERGY     -1038.381829057081

DIPOLE MOMENT
-------------
                                X             Y             Z
Electronic contribution:      1.36233      -4.99838      -0.52168
Nuclear contribution   :      2.66644       5.15833       0.99074
                        -----------------------------------------
Total Dipole Moment    :      4.02878       0.15995       0.46906
                        -----------------------------------------
Magnitude (a.u.)       :      4.05914
Magnitude (Debye)      :     10.31752

Rotational constants in cm-1:     0.009851     0.005758     0.005057
Rotational constants in MHz :   295.317812   172.621403   151.618709

                             ****ORCA TERMINATED NORMALLY****
TOTAL RUN TIME: 0 days 2 hours 8 minutes 0 seconds 582 msec
