                         Program Version 5.0.4 -  RELEASE  -
|  1> ! DLPNO-CCSD(T) def2-TZVP def2-TZVP/C VeryTightSCF
|  2> %maxcore 3400
|  3>
|  4> %pal nprocs 8
|  5> end
|  6>
|  7> *xyz 1 1
|  8> O             3.159227         2.646742         0.064462
|  9> N            -1.362237        -0.309427         0.013243
| 10> N             2.814965         0.444835        -0.059726
| 11> C             1.329762         0.641541        -0.003864
| 12> C             0.660359         0.134753        -1.275703
| 13> C             0.733445        -0.027086         1.228867
| 14> C            -0.845939         0.365883        -1.161236
| 15> C            -0.775725         0.212168         1.232177
| 16> C            -2.816762        -0.418829         0.049745
| 17> C            -3.599613         0.900138         0.162670
| 18> C             3.330485        -0.908013        -0.159467
| 19> C             3.653451         1.434518        -0.023886
| 20> C            -5.082554         0.629255         0.195425
| 21> C             5.143288         1.235339        -0.080256
| 22> C             3.606450        -1.615388         1.001125
| 23> C             3.538881        -1.462618        -1.413427
| 24> C             5.953587         2.526002        -0.004024
| 25> C            -5.735645         0.401269         1.404259
| 26> C            -5.815086         0.545929        -0.986215
| 27> C             4.101807        -2.908672         0.900365
| 28> C             4.034241        -2.756672        -1.504154
| 29> C             4.314338        -3.477690        -0.349620
| 30> C            -7.090831         0.098514         1.433760
| 31> C            -7.170420         0.243432        -0.962217
| 32> C            -7.811969         0.017916         0.249167
| 33> H             1.174166         1.716486         0.070314
| 34> H             0.842967        -0.935049        -1.395842
| 35> H             1.056249         0.659807        -2.150215
| 36> H             1.181380         0.382736         2.139141
| 37> H             0.918249        -1.102832         1.199888
| 38> H            -1.043893         1.452736        -1.144502
| 39> H            -1.342145        -0.038692        -2.046085
| 40> H            -1.221892        -0.303084         2.085588
| 41> H            -0.969288         1.291744         1.365271
| 42> H            -3.135315        -0.945002        -0.855060
| 43> H            -3.082243        -1.062643         0.893600
| 44> H            -3.363829         1.548522        -0.686144
| 45> H            -3.304869         1.432886         1.071321
| 46> H             5.361971         0.687903        -1.000611
| 47> H             5.410533         0.555366         0.732304
| 48> H             3.433372        -1.161822         1.970451
| 49> H             3.313524        -0.891261        -2.306789
| 50> H             5.791572         3.060655         0.936914
| 51> H             5.748218         3.194021        -0.846263
| 52> H             7.015517         2.286181        -0.048567
| 53> H            -5.178765         0.469131         2.334637
| 54> H            -5.320758         0.727753        -1.936436
| 55> H             4.318808        -3.471905         1.800200
| 56> H             4.198490        -3.201396        -2.478461
| 57> H             4.698741        -4.488146        -0.424303
| 58> H            -7.585933        -0.070431         2.383767
| 59> H            -7.727991         0.188159        -1.890780
| 60> H            -8.870673        -0.214656         0.270285
| 61> H             3.868666         3.304824         0.084572
| 62> *
| 63>
| 64>
| 65>                          ****END OF INPUT****

CARTESIAN COORDINATES (ANGSTROEM)
---------------------------------
  O      3.159227    2.646742    0.064462
  N     -1.362237   -0.309427    0.013243
  N      2.814965    0.444835   -0.059726
  C      1.329762    0.641541   -0.003864
  C      0.660359    0.134753   -1.275703
  C      0.733445   -0.027086    1.228867
  C     -0.845939    0.365883   -1.161236
  C     -0.775725    0.212168    1.232177
  C     -2.816762   -0.418829    0.049745
  C     -3.599613    0.900138    0.162670
  C      3.330485   -0.908013   -0.159467
  C      3.653451    1.434518   -0.023886
  C     -5.082554    0.629255    0.195425
  C      5.143288    1.235339   -0.080256
  C      3.606450   -1.615388    1.001125
  C      3.538881   -1.462618   -1.413427
  C      5.953587    2.526002   -0.004024
  C     -5.735645    0.401269    1.404259
  C     -5.815086    0.545929   -0.986215
  C      4.101807   -2.908672    0.900365
  C      4.034241   -2.756672   -1.504154
  C      4.314338   -3.477690   -0.349620
  C     -7.090831    0.098514    1.433760
  C     -7.170420    0.243432   -0.962217
  C     -7.811969    0.017916    0.249167
  H      1.174166    1.716486    0.070314
  H      0.842967   -0.935049   -1.395842
  H      1.056249    0.659807   -2.150215
  H      1.181380    0.382736    2.139141
  H      0.918249   -1.102832    1.199888
  H     -1.043893    1.452736   -1.144502
  H     -1.342145   -0.038692   -2.046085
  H     -1.221892   -0.303084    2.085588
  H     -0.969288    1.291744    1.365271
  H     -3.135315   -0.945002   -0.855060
  H     -3.082243   -1.062643    0.893600
  H     -3.363829    1.548522   -0.686144
  H     -3.304869    1.432886    1.071321
  H      5.361971    0.687903   -1.000611
  H      5.410533    0.555366    0.732304
  H      3.433372   -1.161822    1.970451
  H      3.313524   -0.891261   -2.306789
  H      5.791572    3.060655    0.936914
  H      5.748218    3.194021   -0.846263
  H      7.015517    2.286181   -0.048567
  H     -5.178765    0.469131    2.334637
  H     -5.320758    0.727753   -1.936436
  H      4.318808   -3.471905    1.800200
  H      4.198490   -3.201396   -2.478461
  H      4.698741   -4.488146   -0.424303
  H     -7.585933   -0.070431    2.383767
  H     -7.727991    0.188159   -1.890780
  H     -8.870673   -0.214656    0.270285
  H      3.868666    3.304824    0.084572

 Total Charge           Charge          ....    1
 Multiplicity           Mult            ....    1
 Number of Electrons    NEL             ....  182
 Basis Dimension        Dim             ....  949

ORBITAL ENERGIES
----------------

  NO   OCC          E(Eh)            E(eV)
   0   2.0000     -20.792816      -565.8013
   1   2.0000     -15.785406      -429.5427
   2   2.0000     -15.636077      -425.4793
   3   2.0000     -11.558475      -314.5221
   4   2.0000     -11.413392      -310.5742
   5   2.0000     -11.407651      -310.4180
   6   2.0000     -11.405530      -310.3602
   7   2.0000     -11.376937      -309.5822
   8   2.0000     -11.369528      -309.3806
   9   2.0000     -11.369485      -309.3794
  10   2.0000     -11.360201      -309.1268
  11   2.0000     -11.359847      -309.1171
  12   2.0000     -11.357689      -309.0584
  13   2.0000     -11.349231      -308.8283
  14   2.0000     -11.349183      -308.8270
  15   2.0000     -11.338589      -308.5387
  16   2.0000     -11.338546      -308.5375
  17   2.0000     -11.327157      -308.2276
  18   2.0000     -11.297565      -307.4224
  19   2.0000     -11.296513      -307.3937
  20   2.0000     -11.287430      -307.1466
  21   2.0000     -11.287343      -307.1442
  22   2.0000     -11.285921      -307.1055
  23   2.0000     -11.285907      -307.1051
  24   2.0000     -11.282728      -307.0186
  25   2.0000      -1.638507       -44.5860
  26   2.0000      -1.459777       -39.7225
  27   2.0000      -1.336500       -36.3680
  28   2.0000      -1.285732       -34.9865
  29   2.0000      -1.237500       -33.6741
  30   2.0000      -1.215575       -33.0775
  31   2.0000      -1.196318       -32.5535
  32   2.0000      -1.158129       -31.5143
  33   2.0000      -1.152397       -31.3583
  34   2.0000      -1.132467       -30.8160
  35   2.0000      -1.124794       -30.6072
  36   2.0000      -1.077079       -29.3088
  37   2.0000      -1.070296       -29.1242
  38   2.0000      -1.041525       -28.3413
  39   2.0000      -1.022755       -27.8306
  40   2.0000      -0.990030       -26.9401
  41   2.0000      -0.978450       -26.6250
  42   2.0000      -0.959202       -26.1012
  43   2.0000      -0.945133       -25.7184
  44   2.0000      -0.930719       -25.3262
  45   2.0000      -0.894538       -24.3416
  46   2.0000      -0.884349       -24.0644
  47   2.0000      -0.874870       -23.8064
  48   2.0000      -0.869737       -23.6668
  49   2.0000      -0.848545       -23.0901
  50   2.0000      -0.832474       -22.6528
  51   2.0000      -0.827302       -22.5120
  52   2.0000      -0.794865       -21.6294
  53   2.0000      -0.772058       -21.0088
  54   2.0000      -0.759574       -20.6691
  55   2.0000      -0.755509       -20.5584
  56   2.0000      -0.752455       -20.4753
  57   2.0000      -0.740830       -20.1590
  58   2.0000      -0.737279       -20.0624
  59   2.0000      -0.732813       -19.9408
  60   2.0000      -0.721890       -19.6436
  61   2.0000      -0.717925       -19.5357
  62   2.0000      -0.712431       -19.3862
  63   2.0000      -0.707082       -19.2407
  64   2.0000      -0.693009       -18.8577
  65   2.0000      -0.690142       -18.7797
  66   2.0000      -0.681022       -18.5316
  67   2.0000      -0.673524       -18.3275
  68   2.0000      -0.670765       -18.2525
  69   2.0000      -0.657913       -17.9027
  70   2.0000      -0.645912       -17.5761
  71   2.0000      -0.643075       -17.4990
  72   2.0000      -0.640193       -17.4205
  73   2.0000      -0.635878       -17.3031
  74   2.0000      -0.629338       -17.1252
  75   2.0000      -0.628241       -17.0953
  76   2.0000      -0.620617       -16.8879
  77   2.0000      -0.613381       -16.6909
  78   2.0000      -0.596929       -16.2433
  79   2.0000      -0.593070       -16.1382
  80   2.0000      -0.573170       -15.5968
  81   2.0000      -0.563300       -15.3282
  82   2.0000      -0.553386       -15.0584
  83   2.0000      -0.553288       -15.0557
  84   2.0000      -0.542583       -14.7644
  85   2.0000      -0.541928       -14.7466
  86   2.0000      -0.472875       -12.8676
  87   2.0000      -0.468950       -12.7608
  88   2.0000      -0.447638       -12.1808
  89   2.0000      -0.393030       -10.6949
  90   2.0000      -0.382943       -10.4204
  91   0.0000      -0.023720        -0.6454
  92   0.0000      -0.020827        -0.5667
  93   0.0000      -0.005843        -0.1590
  94   0.0000      -0.000582        -0.0158
  95   0.0000       0.021588         0.5874

MULLIKEN ATOMIC CHARGES
-----------------------
   0 O :   -0.436998
   1 N :   -0.145792
   2 N :   -0.035726
   3 C :    0.075170
   4 C :   -0.164952
   5 C :   -0.165181
   6 C :   -0.188891
   7 C :   -0.189227
   8 C :   -0.223657
   9 C :   -0.242728
  10 C :    0.233572
  11 C :    0.386971
  12 C :    0.340321
  13 C :   -0.153817
  14 C :   -0.341444
  15 C :   -0.342534
  16 C :   -0.433521
  17 C :   -0.298069
  18 C :   -0.298122
  19 C :   -0.039267
  20 C :   -0.040411
  21 C :   -0.121750
  22 C :   -0.089061
  23 C :   -0.089221
  24 C :   -0.154369
  25 H :    0.133057
  26 H :    0.107186
  27 H :    0.109264
  28 H :    0.109264
  29 H :    0.107314
  30 H :    0.098810
  31 H :    0.124815
  32 H :    0.125013
  33 H :    0.098781
  34 H :    0.131607
  35 H :    0.131985
  36 H :    0.118101
  37 H :    0.117953
  38 H :    0.169952
  39 H :    0.169936
  40 H :    0.160697
  41 H :    0.160974
  42 H :    0.150074
  43 H :    0.147957
  44 H :    0.172075
  45 H :    0.118090
  46 H :    0.118273
  47 H :    0.159056
  48 H :    0.159013
  49 H :    0.159917
  50 H :    0.132227
  51 H :    0.132231
  52 H :    0.134054
  53 H :    0.401026
Sum of atomic charges:    1.0000000

LOEWDIN ATOMIC CHARGES
----------------------
   0 O :    0.155924
   1 N :    0.069396
   2 N :    0.307780
   3 C :   -0.194828
   4 C :   -0.210359
   5 C :   -0.210437
   6 C :   -0.249039
   7 C :   -0.249180
   8 C :   -0.249652
   9 C :   -0.204619
  10 C :   -0.160270
  11 C :   -0.189417
  12 C :   -0.143510
  13 C :   -0.209376
  14 C :   -0.101988
  15 C :   -0.101859
  16 C :   -0.274295
  17 C :   -0.115728
  18 C :   -0.115634
  19 C :   -0.107158
  20 C :   -0.107141
  21 C :   -0.097617
  22 C :   -0.127751
  23 C :   -0.127721
  24 C :   -0.134834
  25 H :    0.159481
  26 H :    0.142902
  27 H :    0.131423
  28 H :    0.131431
  29 H :    0.142944
  30 H :    0.118196
  31 H :    0.134315
  32 H :    0.134368
  33 H :    0.118225
  34 H :    0.130950
  35 H :    0.131041
  36 H :    0.132520
  37 H :    0.132541
  38 H :    0.166536
  39 H :    0.166546
  40 H :    0.152024
  41 H :    0.151999
  42 H :    0.122382
  43 H :    0.121989
  44 H :    0.138520
  45 H :    0.140243
  46 H :    0.140281
  47 H :    0.152302
  48 H :    0.152300
  49 H :    0.152832
  50 H :    0.142014
  51 H :    0.142020
  52 H :    0.141949
  53 H :    0.225039

  Mayer bond orders larger than 0.100000
B(  0-O , 11-C ) :   1.2457 B(  0-O , 53-H ) :   0.8229 B(  1-N ,  6-C ) :   0.9761
B(  1-N ,  7-C ) :   0.9760 B(  1-N ,  8-C ) :   0.9220 B(  2-N ,  3-C ) :   0.8030
B(  2-N , 10-C ) :   0.7007 B(  2-N , 11-C ) :   1.6155 B(  3-C ,  4-C ) :   0.9856
B(  3-C ,  5-C ) :   0.9860 B(  3-C , 25-H ) :   0.9710 B(  4-C ,  6-C ) :   1.0139
B(  4-C , 26-H ) :   0.9534 B(  4-C , 27-H ) :   0.9816 B(  5-C ,  7-C ) :   1.0141
B(  5-C , 28-H ) :   0.9817 B(  5-C , 29-H ) :   0.9532 B(  6-C , 30-H ) :   0.9966
B(  6-C , 31-H ) :   0.9777 B(  7-C , 32-H ) :   0.9777 B(  7-C , 33-H ) :   0.9967
B(  8-C ,  9-C ) :   0.9381 B(  8-C , 34-H ) :   1.0051 B(  8-C , 35-H ) :   1.0053
B(  9-C , 12-C ) :   0.8319 B(  9-C , 36-H ) :   1.0040 B(  9-C , 37-H ) :   1.0044
B( 10-C , 14-C ) :   1.4334 B( 10-C , 15-C ) :   1.4327 B( 11-C , 13-C ) :   1.0258
B( 12-C , 17-C ) :   1.3868 B( 12-C , 18-C ) :   1.3862 B( 13-C , 16-C ) :   0.9384
B( 13-C , 38-H ) :   0.9401 B( 13-C , 39-H ) :   0.9421 B( 14-C , 15-C ) :   0.1093
B( 14-C , 19-C ) :   1.4565 B( 14-C , 40-H ) :   0.9889 B( 15-C , 20-C ) :   1.4567
B( 15-C , 41-H ) :   0.9883 B( 16-C , 42-H ) :   0.9811 B( 16-C , 43-H ) :   0.9801
B( 16-C , 44-H ) :   0.9704 B( 17-C , 22-C ) :   1.4709 B( 17-C , 45-H ) :   0.9849
B( 18-C , 23-C ) :   1.4712 B( 18-C , 46-H ) :   0.9849 B( 19-C , 21-C ) :   1.4206
B( 19-C , 47-H ) :   0.9688 B( 20-C , 21-C ) :   1.4212 B( 20-C , 48-H ) :   0.9688
B( 21-C , 49-H ) :   0.9695 B( 22-C , 24-C ) :   1.4369 B( 22-C , 50-H ) :   0.9772
B( 23-C , 24-C ) :   1.4367 B( 23-C , 51-H ) :   0.9772 B( 24-C , 52-H ) :   0.9755

E(0)                                       ...  -1033.916648551
E(0)                                       ...  -1033.916648551
E(CORR)(strong-pairs)                      ...     -4.244478401
E(CORR)(weak-pairs)                        ...     -0.029249031
E(CORR)(corrected)                         ...     -4.273727432
E(TOT)                                     ...  -1038.190375983
E(CCSD(T))                                 ...  -1038.383195498
FINAL SINGLE POINT ENERGY     -1038.383195497876

DIPOLE MOMENT
-------------
                                X             Y             Z
Electronic contribution:      0.50972      -3.68825      -0.26196
Nuclear contribution   :      5.78263       4.87508       0.14432
                        -----------------------------------------
Total Dipole Moment    :      6.29234       1.18683      -0.11764
                        -----------------------------------------
Magnitude (a.u.)       :      6.40437
Magnitude (Debye)      :     16.27862

Rotational constants in cm-1:     0.016289     0.002590     0.002414
Rotational constants in MHz :   488.325591    77.658285    72.365646

                             ****ORCA TERMINATED NORMALLY****
TOTAL RUN TIME: 0 days 1 hours 36 minutes 52 seconds 9 msec
