                         Program Version 5.0.4 -  RELEASE  -
|  1> ! DLPNO-CCSD(T) def2-TZVP def2-TZVP/C VeryTightSCF
|  2> %maxcore 3400
|  3>
|  4> %pal nprocs 8
|  5> end
|  6>
|  7> *xyz 1 1
|  8> O             0.005592        -1.627839         0.772355
|  9> N            -1.888154         1.957665        -0.396632
| 10> N             1.598696        -0.306093        -0.232570
| 11> C             0.688236         0.840330        -0.545378
| 12> C            -0.398834         0.439184        -1.547066
| 13> C             0.187804         1.514390         0.735841
| 14> C            -1.407111         1.575472        -1.704798
| 15> C            -0.848748         2.580986         0.387575
| 16> C            -3.212340         2.552160        -0.347595
| 17> C            -4.301397         1.488487        -0.569069
| 18> C             2.983718        -0.129694        -0.629219
| 19> C             1.229045        -1.397152         0.378588
| 20> C            -3.999122         0.241636         0.225670
| 21> C             2.173589        -2.497980         0.739033
| 22> C             3.378460        -0.535796        -1.895038
| 23> C             3.862685         0.490076         0.244805
| 24> C             2.587701        -2.380773         2.214267
| 25> C            -3.637422        -0.941058        -0.412847
| 26> C            -3.996025         0.270468         1.619091
| 27> C             4.694356        -0.327663        -2.286453
| 28> C             5.176751         0.694910        -0.157386
| 29> C             5.591083         0.285474        -1.418792
| 30> C            -3.260256        -2.063935         0.317768
| 31> C            -3.616925        -0.843954         2.355133
| 32> C            -3.239008        -2.015502         1.706338
| 33> H             1.339550         1.556046        -1.049171
| 34> H            -0.954345        -0.446327        -1.231060
| 35> H             0.072429         0.198079        -2.503968
| 36> H             1.040721         1.951428         1.262699
| 37> H            -0.288619         0.806728         1.419159
| 38> H            -0.945672         2.425990        -2.237480
| 39> H            -2.238676         1.226421        -2.317401
| 40> H            -1.275345         2.978273         1.309580
| 41> H            -0.365706         3.422366        -0.140982
| 42> H            -3.336807         2.979304         0.649874
| 43> H            -3.338261         3.375719        -1.066786
| 44> H            -4.382208         1.235723        -1.629244
| 45> H            -5.265988         1.913916        -0.278849
| 46> H             3.046079        -2.472946         0.090266
| 47> H             1.638221        -3.434995         0.574862
| 48> H             2.668574        -1.015174        -2.560158
| 49> H             3.525477         0.808546         1.224765
| 50> H             3.219274        -3.229206         2.477267
| 51> H             1.714627        -2.387467         2.868393
| 52> H             3.156897        -1.466716         2.391447
| 53> H            -3.658020        -0.988647        -1.497940
| 54> H            -4.292393         1.177660         2.137199
| 55> H             5.018548        -0.645498        -3.270323
| 56> H             5.875980         1.174921         0.517001
| 57> H             6.617045         0.446250        -1.728337
| 58> H            -2.996714        -2.981454        -0.198212
| 59> H            -3.627995        -0.804052         3.438982
| 60> H            -2.953625        -2.890234         2.279946
| 61> H            -0.651139        -0.939889         0.574144
| 62> *
| 63>
| 64>
| 65>                          ****END OF INPUT****

CARTESIAN COORDINATES (ANGSTROEM)
---------------------------------
  O      0.005592   -1.627839    0.772355
  N     -1.888154    1.957665   -0.396632
  N      1.598696   -0.306093   -0.232570
  C      0.688236    0.840330   -0.545378
  C     -0.398834    0.439184   -1.547066
  C      0.187804    1.514390    0.735841
  C     -1.407111    1.575472   -1.704798
  C     -0.848748    2.580986    0.387575
  C     -3.212340    2.552160   -0.347595
  C     -4.301397    1.488487   -0.569069
  C      2.983718   -0.129694   -0.629219
  C      1.229045   -1.397152    0.378588
  C     -3.999122    0.241636    0.225670
  C      2.173589   -2.497980    0.739033
  C      3.378460   -0.535796   -1.895038
  C      3.862685    0.490076    0.244805
  C      2.587701   -2.380773    2.214267
  C     -3.637422   -0.941058   -0.412847
  C     -3.996025    0.270468    1.619091
  C      4.694356   -0.327663   -2.286453
  C      5.176751    0.694910   -0.157386
  C      5.591083    0.285474   -1.418792
  C     -3.260256   -2.063935    0.317768
  C     -3.616925   -0.843954    2.355133
  C     -3.239008   -2.015502    1.706338
  H      1.339550    1.556046   -1.049171
  H     -0.954345   -0.446327   -1.231060
  H      0.072429    0.198079   -2.503968
  H      1.040721    1.951428    1.262699
  H     -0.288619    0.806728    1.419159
  H     -0.945672    2.425990   -2.237480
  H     -2.238676    1.226421   -2.317401
  H     -1.275345    2.978273    1.309580
  H     -0.365706    3.422366   -0.140982
  H     -3.336807    2.979304    0.649874
  H     -3.338261    3.375719   -1.066786
  H     -4.382208    1.235723   -1.629244
  H     -5.265988    1.913916   -0.278849
  H      3.046079   -2.472946    0.090266
  H      1.638221   -3.434995    0.574862
  H      2.668574   -1.015174   -2.560158
  H      3.525477    0.808546    1.224765
  H      3.219274   -3.229206    2.477267
  H      1.714627   -2.387467    2.868393
  H      3.156897   -1.466716    2.391447
  H     -3.658020   -0.988647   -1.497940
  H     -4.292393    1.177660    2.137199
  H      5.018548   -0.645498   -3.270323
  H      5.875980    1.174921    0.517001
  H      6.617045    0.446250   -1.728337
  H     -2.996714   -2.981454   -0.198212
  H     -3.627995   -0.804052    3.438982
  H     -2.953625   -2.890234    2.279946
  H     -0.651139   -0.939889    0.574144

 Total Charge           Charge          ....    1
 Multiplicity           Mult            ....    1
 Number of Electrons    NEL             ....  182
 Basis Dimension        Dim             ....  949

ORBITAL ENERGIES
----------------

  NO   OCC          E(Eh)            E(eV)
   0   2.0000     -20.775653      -565.3342
   1   2.0000     -15.782420      -429.4615
   2   2.0000     -15.647372      -425.7866
   3   2.0000     -11.547934      -314.2353
   4   2.0000     -11.418435      -310.7114
   5   2.0000     -11.413775      -310.5846
   6   2.0000     -11.382281      -309.7276
   7   2.0000     -11.367992      -309.3388
   8   2.0000     -11.367460      -309.3243
   9   2.0000     -11.362795      -309.1974
  10   2.0000     -11.362684      -309.1943
  11   2.0000     -11.360068      -309.1232
  12   2.0000     -11.359853      -309.1173
  13   2.0000     -11.355997      -309.0124
  14   2.0000     -11.354590      -308.9741
  15   2.0000     -11.354523      -308.9723
  16   2.0000     -11.351898      -308.9009
  17   2.0000     -11.348393      -308.8055
  18   2.0000     -11.327687      -308.2420
  19   2.0000     -11.323619      -308.1313
  20   2.0000     -11.321914      -308.0850
  21   2.0000     -11.318610      -307.9950
  22   2.0000     -11.318283      -307.9861
  23   2.0000     -11.316807      -307.9460
  24   2.0000     -11.316362      -307.9339
  25   2.0000      -1.621914       -44.1345
  26   2.0000      -1.453902       -39.5627
  27   2.0000      -1.353691       -36.8358
  28   2.0000      -1.284313       -34.9479
  29   2.0000      -1.247797       -33.9543
  30   2.0000      -1.233278       -33.5592
  31   2.0000      -1.192827       -32.4585
  32   2.0000      -1.153453       -31.3871
  33   2.0000      -1.151312       -31.3288
  34   2.0000      -1.149230       -31.2722
  35   2.0000      -1.144978       -31.1564
  36   2.0000      -1.104204       -30.0469
  37   2.0000      -1.084000       -29.4971
  38   2.0000      -1.053584       -28.6695
  39   2.0000      -1.012724       -27.5576
  40   2.0000      -0.994326       -27.0570
  41   2.0000      -0.988645       -26.9024
  42   2.0000      -0.966973       -26.3127
  43   2.0000      -0.965114       -26.2621
  44   2.0000      -0.944433       -25.6993
  45   2.0000      -0.916815       -24.9478
  46   2.0000      -0.904099       -24.6018
  47   2.0000      -0.879642       -23.9363
  48   2.0000      -0.865978       -23.5645
  49   2.0000      -0.848018       -23.0757
  50   2.0000      -0.815277       -22.1848
  51   2.0000      -0.807452       -21.9719
  52   2.0000      -0.789081       -21.4720
  53   2.0000      -0.777037       -21.1442
  54   2.0000      -0.771575       -20.9956
  55   2.0000      -0.766357       -20.8536
  56   2.0000      -0.754841       -20.5403
  57   2.0000      -0.747819       -20.3492
  58   2.0000      -0.746650       -20.3174
  59   2.0000      -0.739892       -20.1335
  60   2.0000      -0.735865       -20.0239
  61   2.0000      -0.729262       -19.8442
  62   2.0000      -0.721512       -19.6333
  63   2.0000      -0.719047       -19.5663
  64   2.0000      -0.714619       -19.4458
  65   2.0000      -0.692518       -18.8444
  66   2.0000      -0.684588       -18.6286
  67   2.0000      -0.674499       -18.3540
  68   2.0000      -0.670936       -18.2571
  69   2.0000      -0.662092       -18.0165
  70   2.0000      -0.656711       -17.8700
  71   2.0000      -0.651621       -17.7315
  72   2.0000      -0.642573       -17.4853
  73   2.0000      -0.641340       -17.4517
  74   2.0000      -0.638548       -17.3758
  75   2.0000      -0.634207       -17.2576
  76   2.0000      -0.629063       -17.1177
  77   2.0000      -0.622417       -16.9368
  78   2.0000      -0.618328       -16.8256
  79   2.0000      -0.608385       -16.5550
  80   2.0000      -0.589074       -16.0295
  81   2.0000      -0.587127       -15.9765
  82   2.0000      -0.576254       -15.6807
  83   2.0000      -0.570316       -15.5191
  84   2.0000      -0.568873       -15.4798
  85   2.0000      -0.561611       -15.2822
  86   2.0000      -0.470590       -12.8054
  87   2.0000      -0.468884       -12.7590
  88   2.0000      -0.457418       -12.4470
  89   2.0000      -0.429241       -11.6803
  90   2.0000      -0.415953       -11.3186
  91   0.0000      -0.022784        -0.6200
  92   0.0000      -0.008628        -0.2348
  93   0.0000       0.001664         0.0453
  94   0.0000       0.015148         0.4122
  95   0.0000       0.028400         0.7728

MULLIKEN ATOMIC CHARGES
-----------------------
   0 O :   -0.401051
   1 N :   -0.186199
   2 N :   -0.008259
   3 C :   -0.116679
   4 C :   -0.215136
   5 C :   -0.181419
   6 C :   -0.127480
   7 C :   -0.145084
   8 C :   -0.152753
   9 C :   -0.236030
  10 C :    0.156303
  11 C :    0.440596
  12 C :    0.346214
  13 C :   -0.133220
  14 C :   -0.283282
  15 C :   -0.306435
  16 C :   -0.379131
  17 C :   -0.299493
  18 C :   -0.340370
  19 C :   -0.057199
  20 C :   -0.064354
  21 C :   -0.108374
  22 C :   -0.134757
  23 C :   -0.057624
  24 C :   -0.179593
  25 H :    0.146512
  26 H :    0.110715
  27 H :    0.131213
  28 H :    0.124913
  29 H :    0.109148
  30 H :    0.114519
  31 H :    0.124536
  32 H :    0.127475
  33 H :    0.108920
  34 H :    0.109868
  35 H :    0.112883
  36 H :    0.120492
  37 H :    0.142194
  38 H :    0.160649
  39 H :    0.151236
  40 H :    0.152688
  41 H :    0.158401
  42 H :    0.155365
  43 H :    0.146220
  44 H :    0.119572
  45 H :    0.131313
  46 H :    0.132335
  47 H :    0.158400
  48 H :    0.157823
  49 H :    0.159900
  50 H :    0.134617
  51 H :    0.141703
  52 H :    0.136580
  53 H :    0.390614
Sum of atomic charges:    1.0000000

LOEWDIN ATOMIC CHARGES
----------------------
   0 O :    0.182640
   1 N :    0.080410
   2 N :    0.298305
   3 C :   -0.195612
   4 C :   -0.216243
   5 C :   -0.215955
   6 C :   -0.244216
   7 C :   -0.248302
   8 C :   -0.244392
   9 C :   -0.192547
  10 C :   -0.164335
  11 C :   -0.194082
  12 C :   -0.134367
  13 C :   -0.194812
  14 C :   -0.102628
  15 C :   -0.103143
  16 C :   -0.249503
  17 C :   -0.127634
  18 C :   -0.106190
  19 C :   -0.103692
  20 C :   -0.104150
  21 C :   -0.100933
  22 C :   -0.149629
  23 C :   -0.133251
  24 C :   -0.149526
  25 H :    0.167052
  26 H :    0.129150
  27 H :    0.136190
  28 H :    0.135071
  29 H :    0.131580
  30 H :    0.122859
  31 H :    0.135507
  32 H :    0.134539
  33 H :    0.121784
  34 H :    0.129068
  35 H :    0.121148
  36 H :    0.133329
  37 H :    0.143442
  38 H :    0.154905
  39 H :    0.157543
  40 H :    0.150807
  41 H :    0.149071
  42 H :    0.129997
  43 H :    0.124257
  44 H :    0.116980
  45 H :    0.141981
  46 H :    0.145755
  47 H :    0.152468
  48 H :    0.152298
  49 H :    0.152569
  50 H :    0.142058
  51 H :    0.144288
  52 H :    0.142261
  53 H :    0.215829

  Mayer bond orders larger than 0.100000
B(  0-O , 11-C ) :   1.2845 B(  0-O , 53-H ) :   0.8036 B(  1-N ,  6-C ) :   0.9139
B(  1-N ,  7-C ) :   0.9427 B(  1-N ,  8-C ) :   0.9315 B(  2-N ,  3-C ) :   0.7557
B(  2-N , 10-C ) :   0.6915 B(  2-N , 11-C ) :   1.5652 B(  3-C ,  4-C ) :   1.0070
B(  3-C ,  5-C ) :   1.0276 B(  3-C , 25-H ) :   0.9599 B(  4-C ,  6-C ) :   0.9858
B(  4-C , 26-H ) :   0.9858 B(  4-C , 27-H ) :   0.9835 B(  5-C ,  7-C ) :   0.9972
B(  5-C , 28-H ) :   0.9827 B(  5-C , 29-H ) :   0.9711 B(  6-C , 30-H ) :   0.9789
B(  6-C , 31-H ) :   0.9900 B(  7-C , 32-H ) :   0.9859 B(  7-C , 33-H ) :   0.9840
B(  8-C ,  9-C ) :   0.9723 B(  8-C , 34-H ) :   0.9962 B(  8-C , 35-H ) :   0.9810
B(  9-C , 12-C ) :   0.8638 B(  9-C , 36-H ) :   1.0185 B(  9-C , 37-H ) :   0.9949
B( 10-C , 14-C ) :   1.4776 B( 10-C , 15-C ) :   1.4574 B( 11-C , 13-C ) :   0.9537
B( 12-C , 17-C ) :   1.3866 B( 12-C , 18-C ) :   1.3828 B( 13-C , 16-C ) :   0.9425
B( 13-C , 38-H ) :   0.9737 B( 13-C , 39-H ) :   0.9585 B( 14-C , 19-C ) :   1.4759
B( 14-C , 40-H ) :   0.9752 B( 15-C , 20-C ) :   1.4788 B( 15-C , 41-H ) :   0.9724
B( 16-C , 42-H ) :   0.9787 B( 16-C , 43-H ) :   0.9822 B( 16-C , 44-H ) :   0.9750
B( 17-C , 22-C ) :   1.4201 B( 17-C , 45-H ) :   0.9881 B( 18-C , 23-C ) :   1.4553
B( 18-C , 46-H ) :   0.9853 B( 19-C , 21-C ) :   1.4204 B( 19-C , 47-H ) :   0.9687
B( 20-C , 21-C ) :   1.4279 B( 20-C , 48-H ) :   0.9681 B( 21-C , 49-H ) :   0.9690
B( 22-C , 24-C ) :   1.4125 B( 22-C , 50-H ) :   0.9995 B( 23-C , 24-C ) :   1.3959
B( 23-C , 51-H ) :   0.9841 B( 24-C , 52-H ) :   0.9884

E(0)                                       ...  -1033.910900669
E(0)                                       ...  -1033.910900669
E(CORR)(strong-pairs)                      ...     -4.245613117
E(CORR)(weak-pairs)                        ...     -0.035638150
E(CORR)(corrected)                         ...     -4.281251267
E(TOT)                                     ...  -1038.192151936
E(CCSD(T))                                 ...  -1038.385355421
FINAL SINGLE POINT ENERGY     -1038.385355421283

DIPOLE MOMENT
-------------
                                X             Y             Z
Electronic contribution:      4.11410      -3.92798      -1.81659
Nuclear contribution   :     -1.70179       3.78059       1.58350
                        -----------------------------------------
Total Dipole Moment    :      2.41231      -0.14739      -0.23309
                        -----------------------------------------
Magnitude (a.u.)       :      2.42802
Magnitude (Debye)      :      6.17154

Rotational constants in cm-1:     0.013731     0.004609     0.003952
Rotational constants in MHz :   411.648659   138.171881   118.475935

                             ****ORCA TERMINATED NORMALLY****
TOTAL RUN TIME: 0 days 1 hours 45 minutes 12 seconds 26 msec
