                         Program Version 5.0.4 -  RELEASE  -
|  1> ! DLPNO-CCSD(T) def2-TZVP def2-TZVP/C VeryTightSCF
|  2> %maxcore 3400
|  3>
|  4> %pal nprocs 8
|  5> end
|  6>
|  7> *xyz 1 1
|  8> O             2.320567         1.841102         1.219315
|  9> N            -1.957398        -0.485124        -1.097046
| 10> N             2.122526         0.005523        -0.035027
| 11> C             0.642814         0.213218        -0.164734
| 12> C             0.245059         0.424682        -1.620430
| 13> C            -0.131228        -0.948084         0.445927
| 14> C            -1.266741         0.640923        -1.689842
| 15> C            -1.625190        -0.656301         0.307479
| 16> C            -3.369430        -0.584357        -1.447366
| 17> C            -4.257166         0.642677        -1.174459
| 18> C             2.718383        -1.145788        -0.686258
| 19> C             2.886112         0.809185         0.638699
| 20> C            -4.292166         1.059548         0.275265
| 21> C             4.369510         0.595588         0.769566
| 22> C             2.815245        -2.342109         0.008672
| 23> C             3.180468        -1.024217        -1.988174
| 24> C             5.087533         1.656355         1.598676
| 25> C            -3.757676         2.277884         0.683924
| 26> C            -4.828167         0.210958         1.243113
| 27> C             3.388215        -3.440929        -0.617634
| 28> C             3.752004        -2.128519        -2.606307
| 29> C             3.854963        -3.333891        -1.922292
| 30> C            -3.732209         2.632822         2.028069
| 31> C            -4.803881         0.557954         2.586307
| 32> C            -4.247290         1.768769         2.985019
| 33> H             0.417460         1.117874         0.397526
| 34> H             0.501199        -0.457796        -2.210458
| 35> H             0.767600         1.290913        -2.037670
| 36> H             0.129508        -1.066059         1.502080
| 37> H             0.102275        -1.875300        -0.081771
| 38> H            -1.517737         1.595602        -1.195593
| 39> H            -1.568382         0.729683        -2.736322
| 40> H            -2.197184        -1.497052         0.703528
| 41> H            -1.879359         0.222260         0.919755
| 42> H            -3.427576        -0.814738        -2.516578
| 43> H            -3.772824        -1.451484        -0.917841
| 44> H            -5.267770         0.393835        -1.514402
| 45> H            -3.925740         1.484226        -1.789074
| 46> H             4.779815         0.544255        -0.241979
| 47> H             4.517455        -0.400641         1.193716
| 48> H             2.443713        -2.413814         1.024575
| 49> H             3.091205        -0.079386        -2.512249
| 50> H             4.733447         1.681898         2.633878
| 51> H             5.002514         2.653903         1.156771
| 52> H             6.150859         1.421848         1.638264
| 53> H            -3.358872         2.961195        -0.060302
| 54> H            -5.270375        -0.734259         0.942050
| 55> H             3.466941        -4.381494        -0.085456
| 56> H             4.114409        -2.046314        -3.624127
| 57> H             4.299748        -4.194151        -2.408645
| 58> H            -3.318593         3.590291         2.326490
| 59> H            -5.228147        -0.113265         3.325120
| 60> H            -4.233679         2.043473         4.033812
| 61> H             2.978307         2.369841         1.692935
| 62> *
| 63>
| 64>
| 65>                          ****END OF INPUT****

CARTESIAN COORDINATES (ANGSTROEM)
---------------------------------
  O      2.320567    1.841102    1.219315
  N     -1.957398   -0.485124   -1.097046
  N      2.122526    0.005523   -0.035027
  C      0.642814    0.213218   -0.164734
  C      0.245059    0.424682   -1.620430
  C     -0.131228   -0.948084    0.445927
  C     -1.266741    0.640923   -1.689842
  C     -1.625190   -0.656301    0.307479
  C     -3.369430   -0.584357   -1.447366
  C     -4.257166    0.642677   -1.174459
  C      2.718383   -1.145788   -0.686258
  C      2.886112    0.809185    0.638699
  C     -4.292166    1.059548    0.275265
  C      4.369510    0.595588    0.769566
  C      2.815245   -2.342109    0.008672
  C      3.180468   -1.024217   -1.988174
  C      5.087533    1.656355    1.598676
  C     -3.757676    2.277884    0.683924
  C     -4.828167    0.210958    1.243113
  C      3.388215   -3.440929   -0.617634
  C      3.752004   -2.128519   -2.606307
  C      3.854963   -3.333891   -1.922292
  C     -3.732209    2.632822    2.028069
  C     -4.803881    0.557954    2.586307
  C     -4.247290    1.768769    2.985019
  H      0.417460    1.117874    0.397526
  H      0.501199   -0.457796   -2.210458
  H      0.767600    1.290913   -2.037670
  H      0.129508   -1.066059    1.502080
  H      0.102275   -1.875300   -0.081771
  H     -1.517737    1.595602   -1.195593
  H     -1.568382    0.729683   -2.736322
  H     -2.197184   -1.497052    0.703528
  H     -1.879359    0.222260    0.919755
  H     -3.427576   -0.814738   -2.516578
  H     -3.772824   -1.451484   -0.917841
  H     -5.267770    0.393835   -1.514402
  H     -3.925740    1.484226   -1.789074
  H      4.779815    0.544255   -0.241979
  H      4.517455   -0.400641    1.193716
  H      2.443713   -2.413814    1.024575
  H      3.091205   -0.079386   -2.512249
  H      4.733447    1.681898    2.633878
  H      5.002514    2.653903    1.156771
  H      6.150859    1.421848    1.638264
  H     -3.358872    2.961195   -0.060302
  H     -5.270375   -0.734259    0.942050
  H      3.466941   -4.381494   -0.085456
  H      4.114409   -2.046314   -3.624127
  H      4.299748   -4.194151   -2.408645
  H     -3.318593    3.590291    2.326490
  H     -5.228147   -0.113265    3.325120
  H     -4.233679    2.043473    4.033812
  H      2.978307    2.369841    1.692935

 Total Charge           Charge          ....    1
 Multiplicity           Mult            ....    1
 Number of Electrons    NEL             ....  182
 Basis Dimension        Dim             ....  949

ORBITAL ENERGIES
----------------

  NO   OCC          E(Eh)            E(eV)
   0   2.0000     -20.789951      -565.7233
   1   2.0000     -15.782310      -429.4585
   2   2.0000     -15.631210      -425.3469
   3   2.0000     -11.555527      -314.4419
   4   2.0000     -11.411115      -310.5122
   5   2.0000     -11.405513      -310.3598
   6   2.0000     -11.400981      -310.2365
   7   2.0000     -11.375187      -309.5346
   8   2.0000     -11.367495      -309.3253
   9   2.0000     -11.367317      -309.3204
  10   2.0000     -11.358372      -309.0770
  11   2.0000     -11.358004      -309.0670
  12   2.0000     -11.355891      -309.0095
  13   2.0000     -11.345913      -308.7380
  14   2.0000     -11.338811      -308.5447
  15   2.0000     -11.335296      -308.4491
  16   2.0000     -11.331802      -308.3540
  17   2.0000     -11.330186      -308.3100
  18   2.0000     -11.308731      -307.7262
  19   2.0000     -11.303665      -307.5883
  20   2.0000     -11.302583      -307.5589
  21   2.0000     -11.299787      -307.4828
  22   2.0000     -11.299693      -307.4803
  23   2.0000     -11.298980      -307.4609
  24   2.0000     -11.298169      -307.4388
  25   2.0000      -1.635605       -44.5071
  26   2.0000      -1.456870       -39.6434
  27   2.0000      -1.331014       -36.2187
  28   2.0000      -1.283656       -34.9300
  29   2.0000      -1.235265       -33.6133
  30   2.0000      -1.227793       -33.4100
  31   2.0000      -1.193644       -32.4807
  32   2.0000      -1.155970       -31.4556
  33   2.0000      -1.150360       -31.3029
  34   2.0000      -1.130267       -30.7561
  35   2.0000      -1.127238       -30.6737
  36   2.0000      -1.085293       -29.5323
  37   2.0000      -1.077592       -29.3228
  38   2.0000      -1.049056       -28.5463
  39   2.0000      -1.020407       -27.7667
  40   2.0000      -0.990142       -26.9431
  41   2.0000      -0.974799       -26.5256
  42   2.0000      -0.955788       -26.0083
  43   2.0000      -0.943074       -25.6624
  44   2.0000      -0.932106       -25.3639
  45   2.0000      -0.897994       -24.4357
  46   2.0000      -0.892912       -24.2974
  47   2.0000      -0.873050       -23.7569
  48   2.0000      -0.871128       -23.7046
  49   2.0000      -0.851780       -23.1781
  50   2.0000      -0.829816       -22.5804
  51   2.0000      -0.824427       -22.4338
  52   2.0000      -0.792204       -21.5570
  53   2.0000      -0.770468       -20.9655
  54   2.0000      -0.768713       -20.9178
  55   2.0000      -0.753209       -20.4959
  56   2.0000      -0.752782       -20.4842
  57   2.0000      -0.735667       -20.0185
  58   2.0000      -0.734950       -19.9990
  59   2.0000      -0.732201       -19.9242
  60   2.0000      -0.719765       -19.5858
  61   2.0000      -0.716614       -19.5001
  62   2.0000      -0.714102       -19.4317
  63   2.0000      -0.705907       -19.2087
  64   2.0000      -0.697757       -18.9869
  65   2.0000      -0.696533       -18.9536
  66   2.0000      -0.680523       -18.5180
  67   2.0000      -0.672160       -18.2904
  68   2.0000      -0.669488       -18.2177
  69   2.0000      -0.660093       -17.9620
  70   2.0000      -0.653842       -17.7919
  71   2.0000      -0.643832       -17.5196
  72   2.0000      -0.640766       -17.4361
  73   2.0000      -0.636286       -17.3142
  74   2.0000      -0.633850       -17.2479
  75   2.0000      -0.630346       -17.1526
  76   2.0000      -0.618200       -16.8221
  77   2.0000      -0.608329       -16.5535
  78   2.0000      -0.598377       -16.2827
  79   2.0000      -0.592011       -16.1094
  80   2.0000      -0.575361       -15.6564
  81   2.0000      -0.571659       -15.5556
  82   2.0000      -0.566603       -15.4181
  83   2.0000      -0.552163       -15.0251
  84   2.0000      -0.548323       -14.9206
  85   2.0000      -0.545594       -14.8464
  86   2.0000      -0.470800       -12.8111
  87   2.0000      -0.467008       -12.7079
  88   2.0000      -0.442884       -12.0515
  89   2.0000      -0.408885       -11.1263
  90   2.0000      -0.393828       -10.7166
  91   0.0000      -0.021591        -0.5875
  92   0.0000      -0.018086        -0.4921
  93   0.0000      -0.003913        -0.1065
  94   0.0000       0.001385         0.0377
  95   0.0000       0.023616         0.6426

MULLIKEN ATOMIC CHARGES
-----------------------
   0 O :   -0.436246
   1 N :   -0.154853
   2 N :   -0.030943
   3 C :    0.068893
   4 C :   -0.166265
   5 C :   -0.142722
   6 C :   -0.181769
   7 C :   -0.216546
   8 C :   -0.148563
   9 C :   -0.220008
  10 C :    0.235997
  11 C :    0.387055
  12 C :    0.180690
  13 C :   -0.153498
  14 C :   -0.342450
  15 C :   -0.341026
  16 C :   -0.433329
  17 C :   -0.223610
  18 C :   -0.245619
  19 C :   -0.040493
  20 C :   -0.040364
  21 C :   -0.121906
  22 C :   -0.120289
  23 C :   -0.115176
  24 C :   -0.143036
  25 H :    0.133548
  26 H :    0.106063
  27 H :    0.107299
  28 H :    0.105559
  29 H :    0.104219
  30 H :    0.081110
  31 H :    0.125517
  32 H :    0.115846
  33 H :    0.129111
  34 H :    0.116833
  35 H :    0.110736
  36 H :    0.132849
  37 H :    0.112989
  38 H :    0.169282
  39 H :    0.169542
  40 H :    0.160917
  41 H :    0.160308
  42 H :    0.148453
  43 H :    0.148851
  44 H :    0.171446
  45 H :    0.126367
  46 H :    0.131137
  47 H :    0.158419
  48 H :    0.158304
  49 H :    0.159181
  50 H :    0.130078
  51 H :    0.136813
  52 H :    0.135215
  53 H :    0.400083
Sum of atomic charges:    1.0000000

LOEWDIN ATOMIC CHARGES
----------------------
   0 O :    0.156050
   1 N :    0.074492
   2 N :    0.308322
   3 C :   -0.194173
   4 C :   -0.210239
   5 C :   -0.210483
   6 C :   -0.248768
   7 C :   -0.246529
   8 C :   -0.250234
   9 C :   -0.200068
  10 C :   -0.159799
  11 C :   -0.190086
  12 C :   -0.146558
  13 C :   -0.209571
  14 C :   -0.101246
  15 C :   -0.102024
  16 C :   -0.274588
  17 C :   -0.128727
  18 C :   -0.111595
  19 C :   -0.107708
  20 C :   -0.107940
  21 C :   -0.098542
  22 C :   -0.137515
  23 C :   -0.129068
  24 C :   -0.140157
  25 H :    0.160283
  26 H :    0.142264
  27 H :    0.130642
  28 H :    0.131221
  29 H :    0.141253
  30 H :    0.119339
  31 H :    0.134227
  32 H :    0.133111
  33 H :    0.131718
  34 H :    0.128082
  35 H :    0.128583
  36 H :    0.143649
  37 H :    0.134265
  38 H :    0.166295
  39 H :    0.166330
  40 H :    0.152169
  41 H :    0.151904
  42 H :    0.122012
  43 H :    0.122061
  44 H :    0.138243
  45 H :    0.138967
  46 H :    0.144123
  47 H :    0.152063
  48 H :    0.152007
  49 H :    0.152528
  50 H :    0.140489
  51 H :    0.142968
  52 H :    0.141405
  53 H :    0.224554

  Mayer bond orders larger than 0.100000
B(  0-O , 11-C ) :   1.2463 B(  0-O , 53-H ) :   0.8237 B(  1-N ,  6-C ) :   0.9662
B(  1-N ,  7-C ) :   0.9809 B(  1-N ,  8-C ) :   0.9405 B(  2-N ,  3-C ) :   0.8015
B(  2-N , 10-C ) :   0.7015 B(  2-N , 11-C ) :   1.6169 B(  3-C ,  4-C ) :   0.9845
B(  3-C ,  5-C ) :   0.9934 B(  3-C , 25-H ) :   0.9716 B(  4-C ,  6-C ) :   1.0232
B(  4-C , 26-H ) :   0.9556 B(  4-C , 27-H ) :   0.9815 B(  5-C ,  7-C ) :   1.0069
B(  5-C , 28-H ) :   0.9767 B(  5-C , 29-H ) :   0.9576 B(  6-C , 30-H ) :   0.9928
B(  6-C , 31-H ) :   0.9788 B(  7-C , 32-H ) :   0.9801 B(  7-C , 33-H ) :   1.0018
B(  8-C ,  9-C ) :   0.9462 B(  8-C , 34-H ) :   1.0010 B(  8-C , 35-H ) :   0.9970
B(  9-C , 12-C ) :   0.8921 B(  9-C , 36-H ) :   0.9878 B(  9-C , 37-H ) :   1.0054
B( 10-C , 14-C ) :   1.4344 B( 10-C , 15-C ) :   1.4340 B( 11-C , 13-C ) :   1.0255
B( 12-C , 17-C ) :   1.4161 B( 12-C , 18-C ) :   1.3837 B( 13-C , 16-C ) :   0.9384
B( 13-C , 38-H ) :   0.9417 B( 13-C , 39-H ) :   0.9413 B( 14-C , 15-C ) :   0.1084
B( 14-C , 19-C ) :   1.4566 B( 14-C , 40-H ) :   0.9884 B( 15-C , 20-C ) :   1.4561
B( 15-C , 41-H ) :   0.9886 B( 16-C , 42-H ) :   0.9806 B( 16-C , 43-H ) :   0.9810
B( 16-C , 44-H ) :   0.9707 B( 17-C , 22-C ) :   1.4474 B( 17-C , 45-H ) :   0.9801
B( 18-C , 23-C ) :   1.4746 B( 18-C , 46-H ) :   0.9892 B( 19-C , 21-C ) :   1.4206
B( 19-C , 47-H ) :   0.9691 B( 20-C , 21-C ) :   1.4211 B( 20-C , 48-H ) :   0.9692
B( 21-C , 49-H ) :   0.9699 B( 22-C , 24-C ) :   1.4430 B( 22-C , 50-H ) :   0.9820
B( 23-C , 24-C ) :   1.4184 B( 23-C , 51-H ) :   0.9779 B( 24-C , 52-H ) :   0.9776

E(0)                                       ...  -1033.912794668
E(0)                                       ...  -1033.912794668
E(CORR)(strong-pairs)                      ...     -4.247196233
E(CORR)(weak-pairs)                        ...     -0.031967525
E(CORR)(corrected)                         ...     -4.279163759
E(TOT)                                     ...  -1038.191958427
E(CCSD(T))                                 ...  -1038.385188181
FINAL SINGLE POINT ENERGY     -1038.385188181119

DIPOLE MOMENT
-------------
                                X             Y             Z
Electronic contribution:      2.54458      -2.15074       0.74560
Nuclear contribution   :      2.28773       2.44498      -0.32539
                        -----------------------------------------
Total Dipole Moment    :      4.83232       0.29424       0.42020
                        -----------------------------------------
Magnitude (a.u.)       :      4.85947
Magnitude (Debye)      :     12.35178

Rotational constants in cm-1:     0.012640     0.003850     0.003338
Rotational constants in MHz :   378.938260   115.425160   100.085604

                             ****ORCA TERMINATED NORMALLY****
TOTAL RUN TIME: 0 days 1 hours 26 minutes 8 seconds 171 msec
